Program Version,EnergyPlus, Version 24.2.0-94a887817b, YMD=2025.06.25 12:35
1,5,Environment Title[],Latitude[deg],Longitude[deg],Time Zone[],Elevation[m]
2,8,Day of Simulation[],Month[],Day of Month[],DST Indicator[1=yes 0=no],Hour[],StartMinute[],EndMinute[],DayType
3,5,Cumulative Day of Simulation[],Month[],Day of Month[],DST Indicator[1=yes 0=no],DayType  ! When Daily Report Variables Requested
4,2,Cumulative Days of Simulation[],Month[]  ! When Monthly Report Variables Requested
5,1,Cumulative Days of Simulation[] ! When Run Period Report Variables Requested
6,1,Calendar Year of Simulation[] ! When Annual Report Variables Requested
7,1,Z1,Zone Air Temperature [C] !Hourly
142,1,Z2,Zone Air Temperature [C] !Hourly
205,1,Z3,Zone Air Temperature [C] !Hourly
268,1,Z4,Zone Air Temperature [C] !Hourly
393,1,Z1 RADIATOR,Baseboard Total Heating Rate [W] !Hourly
396,1,Z2 RADIATOR,Baseboard Total Heating Rate [W] !Hourly
399,1,Z3 RADIATOR,Baseboard Total Heating Rate [W] !Hourly
402,1,Z4 RADIATOR,Baseboard Total Heating Rate [W] !Hourly
403,1,HEAT PUMP,Heat Pump Load Side Heat Transfer Rate [W] !Hourly
417,1,HEAT PUMP,Heat Pump Electricity Rate [W] !Hourly
492,1,SUPPLY PUMP,Pump Electricity Rate [W] !Hourly
End of Data Dictionary
1,SUMMER DESIGN DAY IN SALFORD ENERGY HOUSE 1.0 (01-01:31-12) JUN HVAC Sizing Pass 1,  53.35,  -2.28,   0.00,  69.00
2,1, 6,15, 1, 1, 0.00,60.00,SummerDesignDay
7,21.393790428563435
142,21.39379042084992
205,21.393790089674386
268,21.393790081960887
393,0.0
396,0.0
399,0.0
402,0.0
403,0.0
417,0.0
492,0.0
2,1, 6,15, 1, 2, 0.00,60.00,SummerDesignDay
7,20.970375362091346
142,20.97037535849183
205,20.932034777736437
268,20.932034774133445
393,12.744116924488637
396,12.744116925684672
399,0.0
402,0.0
403,167.82850143220722
417,47.95100040920206
492,27.09371743615774
2,1, 6,15, 1, 3, 0.00,60.00,SummerDesignDay
7,21.03471791768292
142,21.034717916168223
205,20.519095346262045
268,20.519095344581075
393,59.117545658461985
396,59.11754566174819
399,0.0
402,0.0
403,93.46688613665596
417,26.704824610473132
492,27.107081994449203
2,1, 6,15, 1, 4, 0.00,60.00,SummerDesignDay
7,21.113924097966873
142,21.113924097361775
205,20.206553099635286
268,20.206553098865093
393,70.78423660164364
396,70.78423660322056
399,0.0
402,0.0
403,79.39053791426332
417,22.683010832646662
492,27.11004920587239
2,1, 6,15, 1, 5, 0.00,60.00,SummerDesignDay
7,21.16574499901357
142,21.165745038674274
205,19.97942016390567
268,19.97942019831402
393,80.1566221787943
396,80.15662213454107
399,0.0
402,0.0
403,90.96315315610136
417,25.989472330314673
492,27.112398843503662
2,1, 6,15, 1, 6, 0.00,60.00,SummerDesignDay
7,21.202440179331333
142,21.20244036407762
205,19.832293763566
268,19.83229393311042
393,83.76612797011101
396,83.76612760993774
399,0.0
402,0.0
403,200.77374803974627
417,57.36392801135607
492,54.20060231135127
2,1, 6,15, 1, 7, 0.00,60.00,SummerDesignDay
7,21.22278368806148
142,21.22278401328387
205,19.79149252585685
268,19.791492838974467
393,78.62670915340215
396,78.62670847172112
399,0.0
402,0.0
403,95.53295630197962
417,27.29513037199418
492,27.11207101350069
2,1, 6,15, 1, 8, 0.00,60.00,SummerDesignDay
7,21.218969289494304
142,21.218969703272847
205,19.924115895943974
268,19.92411631401514
393,57.90778101097921
396,57.907780333998694
399,0.0
402,0.0
403,106.49410052944229
417,30.42688586555494
492,27.107459822772384
2,1, 6,15, 1, 9, 0.00,60.00,SummerDesignDay
7,21.175323920713424
142,21.175324360809142
205,20.272410833632577
268,20.27241128193955
393,24.17316913714513
396,24.173168824894454
399,0.0
402,0.0
403,0.0
417,0.0
492,0.007411412481216033
2,1, 6,15, 1,10, 0.00,60.00,SummerDesignDay
7,21.153262038270675
142,21.153262456030106
205,20.772878308190094
268,20.772878725312722
393,0.906113558543331
396,0.9061135467920116
399,0.0
402,0.0
403,0.0
417,0.0
492,0.00027742363640542484
2,1, 6,15, 1,11, 0.00,60.00,SummerDesignDay
7,21.44255291690125
142,21.442553243429153
205,21.31753966027221
268,21.317539985894662
393,0.0
396,0.0
399,0.0
402,0.0
403,0.0
417,0.0
492,0.0
2,1, 6,15, 1,12, 0.00,60.00,SummerDesignDay
7,21.930175210219847
142,21.930175405758806
205,21.887476931272616
268,21.887477126678604
393,0.0
396,0.0
399,0.0
402,0.0
403,0.0
417,0.0
492,0.0
2,1, 6,15, 1,13, 0.00,60.00,SummerDesignDay
7,22.471892298812012
142,22.471892342555794
205,22.457331501143727
268,22.457331544868424
393,0.0
396,0.0
399,0.0
402,0.0
403,0.0
417,0.0
492,0.0
2,1, 6,15, 1,14, 0.00,60.00,SummerDesignDay
7,23.01235552484821
142,23.012355411952356
205,23.00739817848247
268,23.007398065584027
393,0.0
396,0.0
399,0.0
402,0.0
403,0.0
417,0.0
492,0.0
2,1, 6,15, 1,15, 0.00,60.00,SummerDesignDay
7,23.490734974237533
142,23.49073471523453
205,23.489047685857443
268,23.489047426854015
393,0.0
396,0.0
399,0.0
402,0.0
403,0.0
417,0.0
492,0.0
2,1, 6,15, 1,16, 0.00,60.00,SummerDesignDay
7,23.836628950839067
142,23.836628566009548
205,23.836053828621104
268,23.83605344379145
393,0.0
396,0.0
399,0.0
402,0.0
403,0.0
417,0.0
492,0.0
2,1, 6,15, 1,17, 0.00,60.00,SummerDesignDay
7,24.010319409503122
142,24.0103189428229
205,24.01012118201762
268,24.010120715337326
393,0.0
396,0.0
399,0.0
402,0.0
403,0.0
417,0.0
492,0.0
2,1, 6,15, 1,18, 0.00,60.00,SummerDesignDay
7,24.023875262737025
142,24.02387476853208
205,24.023803609043203
268,24.02380311483823
393,0.0
396,0.0
399,0.0
402,0.0
403,0.0
417,0.0
492,0.0
2,1, 6,15, 1,19, 0.00,60.00,SummerDesignDay
7,23.884160219128518
142,23.884159771373973
205,23.88412748451897
268,23.884127036764422
393,0.0
396,0.0
399,0.0
402,0.0
403,0.0
417,0.0
492,0.0
2,1, 6,15, 1,20, 0.00,60.00,SummerDesignDay
7,23.59405525944934
142,23.594054933427238
205,23.594039935677255
268,23.594039609655148
393,0.0
396,0.0
399,0.0
402,0.0
403,0.0
417,0.0
492,0.0
2,1, 6,15, 1,21, 0.00,60.00,SummerDesignDay
7,23.2222930008289
142,23.222292837175683
205,23.22228584703482
268,23.222285683381603
393,0.0
396,0.0
399,0.0
402,0.0
403,0.0
417,0.0
492,0.0
2,1, 6,15, 1,22, 0.00,60.00,SummerDesignDay
7,22.798933329118924
142,22.798933253095523
205,22.798929988846275
268,22.798929912822878
393,0.0
396,0.0
399,0.0
402,0.0
403,0.0
417,0.0
492,0.0
2,1, 6,15, 1,23, 0.00,60.00,SummerDesignDay
7,22.340197178239546
142,22.340197142799504
205,22.340195620609784
268,22.34019558516973
393,0.0
396,0.0
399,0.0
402,0.0
403,0.0
417,0.0
492,0.0
2,1, 6,15, 1,24, 0.00,60.00,SummerDesignDay
7,21.869526203546876
142,21.869526187019787
205,21.869525477145075
268,21.86952546061799
393,0.0
396,0.0
399,0.0
402,0.0
403,0.0
417,0.0
492,0.0
1,WINTER DESIGN DAY IN (MID) UK HVAC Sizing Pass 1,  53.35,  -2.28,   0.00,  69.00
2,1, 1,15, 0, 1, 0.00,60.00,WinterDesignDay
7,21.69475013056652
142,21.69475013056652
205,17.30512624478763
268,17.30512624478763
393,535.8721682981954
396,535.8721682981954
399,297.33283856629726
402,297.33283856629726
403,1568.8411832103282
417,448.24033806009373
492,108.37269921885786
2,1, 1,15, 0, 2, 0.00,60.00,WinterDesignDay
7,21.694749814010102
142,21.694749814010102
205,17.305320526451172
268,17.305320526451172
393,535.8722538147222
396,535.8722538147222
399,297.2499376883336
402,297.2499376883336
403,1568.696825089975
417,448.19909288285004
492,108.37269956795681
2,1, 1,15, 0, 3, 0.00,60.00,WinterDesignDay
7,21.69475858794804
142,21.69475858794804
205,17.30523887427593
268,17.30523887427593
393,535.8720855645853
396,535.8720855645853
399,297.25214208062243
402,297.25214208062243
403,1568.7011643198566
417,448.2003326628162
492,108.3726995574633
2,1, 1,15, 0, 4, 0.00,60.00,WinterDesignDay
7,21.694763345386377
142,21.694763345386377
205,17.304718727217963
268,17.304718727217963
393,535.8719950373129
396,535.8719950373129
399,297.17755503338736
402,297.17755503338736
403,1568.5515359193942
417,448.1575816912555
492,108.37269991931063
2,1, 1,15, 0, 5, 0.00,60.00,WinterDesignDay
7,21.694753250346412
142,21.694753250346412
205,17.305563838104625
268,17.305563838104625
393,535.8721236213223
396,535.8721236213223
399,297.3269600732561
402,297.3269600732561
403,1568.851113811078
417,448.24317537459376
492,108.37269919484287
2,1, 1,15, 0, 6, 0.00,60.00,WinterDesignDay
7,21.69476019887028
142,21.69476019887028
205,17.305049916486105
268,17.305049916486105
393,535.8720701371192
396,535.8720701371192
399,297.1738108023567
402,297.1738108023567
403,1568.5550600687825
417,448.15858859108073
492,108.37269991078489
2,1, 1,15, 0, 7, 0.00,60.00,WinterDesignDay
7,21.694764680608017
142,21.694764680608017
205,17.30526506844519
268,17.30526506844519
393,535.8719876653407
396,535.8719876653407
399,297.251165756933
402,297.251165756933
403,1568.6989581963837
417,448.19970234182387
492,108.37269956279835
2,1, 1,15, 0, 8, 0.00,60.00,WinterDesignDay
7,21.694770865690632
142,21.694770865690632
205,17.30503577157947
268,17.30503577157947
393,535.8718964828448
396,535.8718964828448
399,297.17383574622704
402,297.17383574622704
403,1568.5547823496336
417,448.1585092427525
492,108.37269991145985
2,1, 1,15, 0, 9, 0.00,60.00,WinterDesignDay
7,21.6947689249643
142,21.6947689249643
205,17.30512929013402
268,17.30512929013402
393,535.8718592879478
396,535.8718592879478
399,297.3328444717414
402,297.3328444717414
403,1568.8405715578376
417,448.24016330223935
492,108.37269922033701
2,1, 1,15, 0,10, 0.00,60.00,WinterDesignDay
7,21.694766111879048
142,21.694766111879048
205,17.304876111807765
268,17.304876111807765
393,535.8719815112461
396,535.8719815112461
399,297.1749816661833
402,297.1749816661833
403,1568.5460741377738
417,448.1560211822211
492,108.37269993252052
2,1, 1,15, 0,11, 0.00,60.00,WinterDesignDay
7,21.69475816521751
142,21.69475816521751
205,17.30543828517959
268,17.30543828517959
393,535.8720134620384
396,535.8720134620384
399,297.32913906057877
402,297.32913906057877
403,1568.8554207451468
417,448.24440592718486
492,108.37269918442746
2,1, 1,15, 0,12, 0.00,60.00,WinterDesignDay
7,21.694760887021538
142,21.694760887021538
205,17.304753076115023
268,17.304753076115023
393,535.8720422069296
396,535.8720422069296
399,297.17716904830314
402,297.17716904830314
403,1568.5507458414245
417,448.1573559546927
492,108.37269992122127
2,1, 1,15, 0,13, 0.00,60.00,WinterDesignDay
7,21.694751897381387
142,21.694751897381387
205,17.30558588272904
268,17.30558588272904
393,535.8721514775227
396,535.8721514775227
399,297.3267635472861
402,297.3267635472861
403,1568.8507718205035
417,448.243077663001
492,108.3726991956699
2,1, 1,15, 0,14, 0.00,60.00,WinterDesignDay
7,21.69475524642734
142,21.69475524642734
205,17.304668012813288
268,17.304668012813288
393,535.8721030585673
396,535.8721030585673
399,297.17815859853584
402,297.17815859853584
403,1568.5530125980476
417,448.15800359944217
492,108.37269991574136
2,1, 1,15, 0,15, 0.00,60.00,WinterDesignDay
7,21.694749300671802
142,21.694749300671802
205,17.305147195347068
268,17.305147195347068
393,535.8722333874091
396,535.8722333874091
399,297.1715877382655
402,297.1715877382655
403,1568.5617815015307
417,448.1605090004374
492,108.37269989453391
2,1, 1,15, 0,16, 0.00,60.00,WinterDesignDay
7,21.69475013056776
142,21.69475013056776
205,17.30512624478913
268,17.30512624478913
393,535.8721682981748
396,535.8721682981748
399,297.3328385662881
402,297.3328385662881
403,1568.8411832103282
417,448.24033806009373
492,108.37269921885786
2,1, 1,15, 0,17, 0.00,60.00,WinterDesignDay
7,21.694749814011203
142,21.694749814011203
205,17.305320526452466
268,17.305320526452466
393,535.8722538147039
396,535.8722538147039
399,297.24993768831985
402,297.24993768831985
403,1568.6968250899008
417,448.19909288282884
492,108.37269956795681
2,1, 1,15, 0,18, 0.00,60.00,WinterDesignDay
7,21.69475858794903
142,21.69475858794903
205,17.30523887427709
268,17.30523887427709
393,535.8720855645715
396,535.8720855645715
399,297.2521420806133
402,297.2521420806133
403,1568.7011643197825
417,448.20033266279495
492,108.3726995574633
2,1, 1,15, 0,19, 0.00,60.00,WinterDesignDay
7,21.694763345387273
142,21.694763345387273
205,17.304718727218987
268,17.304718727218987
393,535.8719950373015
396,535.8719950373015
399,297.1775550333782
402,297.1775550333782
403,1568.5515359194687
417,448.15758169127673
492,108.37269991931063
2,1, 1,15, 0,20, 0.00,60.00,WinterDesignDay
7,21.694753250347183
142,21.694753250347183
205,17.305563838105524
268,17.305563838105524
393,535.8721236213084
396,535.8721236213084
399,297.3269600732469
402,297.3269600732469
403,1568.8511138109666
417,448.2431753745619
492,108.37269919484287
2,1, 1,15, 0,21, 0.00,60.00,WinterDesignDay
7,21.694760198870974
142,21.694760198870974
205,17.30504991648692
268,17.30504991648692
393,535.8720701371078
396,535.8720701371078
399,297.1738108023521
402,297.1738108023521
403,1568.5550600687825
417,448.15858859108073
492,108.37269991078489
2,1, 1,15, 0,22, 0.00,60.00,WinterDesignDay
7,21.69476468060863
142,21.69476468060863
205,17.30526506844592
268,17.30526506844592
393,535.8719876653294
396,535.8719876653294
399,297.25116575692834
402,297.25116575692834
403,1568.6989581963837
417,448.19970234182387
492,108.37269956279835
2,1, 1,15, 0,23, 0.00,60.00,WinterDesignDay
7,21.694770865691165
142,21.694770865691165
205,17.30503577158011
268,17.30503577158011
393,535.8718964828354
396,535.8718964828354
399,297.17383574622016
402,297.17383574622016
403,1568.5547823496336
417,448.1585092427525
492,108.37269991145985
2,1, 1,15, 0,24, 0.00,60.00,WinterDesignDay
7,21.694768924964762
142,21.694768924964762
205,17.305129290134598
268,17.305129290134598
393,535.8718592879386
396,535.8718592879386
399,297.3328444717391
402,297.3328444717391
403,1568.8405715578376
417,448.24016330223935
492,108.37269922033701
1,SUMMER DESIGN DAY IN SALFORD ENERGY HOUSE 1.0 (01-01:31-12) JUN,  53.35,  -2.28,   0.00,  69.00
2,1, 6,15, 1, 1, 0.00,60.00,SummerDesignDay
7,21.393790428563435
142,21.39379042084992
205,21.393790089674386
268,21.393790081960887
393,0.0
396,0.0
399,0.0
402,0.0
403,0.0
417,0.0
492,0.0
2,1, 6,15, 1, 2, 0.00,60.00,SummerDesignDay
7,20.970375362091346
142,20.97037535849183
205,20.932034777736437
268,20.932034774133445
393,12.744116924488637
396,12.744116925684672
399,0.0
402,0.0
403,167.82850143220722
417,47.95100040920206
492,27.09371743615774
2,1, 6,15, 1, 3, 0.00,60.00,SummerDesignDay
7,21.03471791768292
142,21.034717916168223
205,20.519095346262045
268,20.519095344581075
393,59.117545658461985
396,59.11754566174819
399,0.0
402,0.0
403,93.46688613665596
417,26.704824610473132
492,27.107081994449203
2,1, 6,15, 1, 4, 0.00,60.00,SummerDesignDay
7,21.113924097966873
142,21.113924097361775
205,20.206553099635286
268,20.206553098865093
393,70.78423660164364
396,70.78423660322056
399,0.0
402,0.0
403,79.39053791426332
417,22.683010832646662
492,27.11004920587239
2,1, 6,15, 1, 5, 0.00,60.00,SummerDesignDay
7,21.16574499901357
142,21.165745038674274
205,19.97942016390567
268,19.97942019831402
393,80.1566221787943
396,80.15662213454107
399,0.0
402,0.0
403,90.96315315610136
417,25.989472330314673
492,27.112398843503662
2,1, 6,15, 1, 6, 0.00,60.00,SummerDesignDay
7,21.202440179331333
142,21.20244036407762
205,19.832293763566
268,19.83229393311042
393,83.76612797011101
396,83.76612760993774
399,0.0
402,0.0
403,200.77374803974627
417,57.36392801135607
492,54.20060231135127
2,1, 6,15, 1, 7, 0.00,60.00,SummerDesignDay
7,21.22278368806148
142,21.22278401328387
205,19.79149252585685
268,19.791492838974467
393,78.62670915340215
396,78.62670847172112
399,0.0
402,0.0
403,95.53295630197962
417,27.29513037199418
492,27.11207101350069
2,1, 6,15, 1, 8, 0.00,60.00,SummerDesignDay
7,21.218969289494304
142,21.218969703272847
205,19.924115895943974
268,19.92411631401514
393,57.90778101097921
396,57.907780333998694
399,0.0
402,0.0
403,106.49410052944229
417,30.42688586555494
492,27.107459822772384
2,1, 6,15, 1, 9, 0.00,60.00,SummerDesignDay
7,21.175323920713424
142,21.175324360809142
205,20.272410833632577
268,20.27241128193955
393,24.17316913714513
396,24.173168824894454
399,0.0
402,0.0
403,0.0
417,0.0
492,0.007411412481216033
2,1, 6,15, 1,10, 0.00,60.00,SummerDesignDay
7,21.153262038270675
142,21.153262456030106
205,20.772878308190094
268,20.772878725312722
393,0.906113558543331
396,0.9061135467920116
399,0.0
402,0.0
403,0.0
417,0.0
492,0.00027742363640542484
2,1, 6,15, 1,11, 0.00,60.00,SummerDesignDay
7,21.44255291690125
142,21.442553243429153
205,21.31753966027221
268,21.317539985894662
393,0.0
396,0.0
399,0.0
402,0.0
403,0.0
417,0.0
492,0.0
2,1, 6,15, 1,12, 0.00,60.00,SummerDesignDay
7,21.930175210219847
142,21.930175405758806
205,21.887476931272616
268,21.887477126678604
393,0.0
396,0.0
399,0.0
402,0.0
403,0.0
417,0.0
492,0.0
2,1, 6,15, 1,13, 0.00,60.00,SummerDesignDay
7,22.471892298812012
142,22.471892342555794
205,22.457331501143727
268,22.457331544868424
393,0.0
396,0.0
399,0.0
402,0.0
403,0.0
417,0.0
492,0.0
2,1, 6,15, 1,14, 0.00,60.00,SummerDesignDay
7,23.01235552484821
142,23.012355411952356
205,23.00739817848247
268,23.007398065584027
393,0.0
396,0.0
399,0.0
402,0.0
403,0.0
417,0.0
492,0.0
2,1, 6,15, 1,15, 0.00,60.00,SummerDesignDay
7,23.490734974237533
142,23.49073471523453
205,23.489047685857443
268,23.489047426854015
393,0.0
396,0.0
399,0.0
402,0.0
403,0.0
417,0.0
492,0.0
2,1, 6,15, 1,16, 0.00,60.00,SummerDesignDay
7,23.836628950839067
142,23.836628566009548
205,23.836053828621104
268,23.83605344379145
393,0.0
396,0.0
399,0.0
402,0.0
403,0.0
417,0.0
492,0.0
2,1, 6,15, 1,17, 0.00,60.00,SummerDesignDay
7,24.010319409503122
142,24.0103189428229
205,24.01012118201762
268,24.010120715337326
393,0.0
396,0.0
399,0.0
402,0.0
403,0.0
417,0.0
492,0.0
2,1, 6,15, 1,18, 0.00,60.00,SummerDesignDay
7,24.023875262737025
142,24.02387476853208
205,24.023803609043203
268,24.02380311483823
393,0.0
396,0.0
399,0.0
402,0.0
403,0.0
417,0.0
492,0.0
2,1, 6,15, 1,19, 0.00,60.00,SummerDesignDay
7,23.884160219128518
142,23.884159771373973
205,23.88412748451897
268,23.884127036764422
393,0.0
396,0.0
399,0.0
402,0.0
403,0.0
417,0.0
492,0.0
2,1, 6,15, 1,20, 0.00,60.00,SummerDesignDay
7,23.59405525944934
142,23.594054933427238
205,23.594039935677255
268,23.594039609655148
393,0.0
396,0.0
399,0.0
402,0.0
403,0.0
417,0.0
492,0.0
2,1, 6,15, 1,21, 0.00,60.00,SummerDesignDay
7,23.2222930008289
142,23.222292837175683
205,23.22228584703482
268,23.222285683381603
393,0.0
396,0.0
399,0.0
402,0.0
403,0.0
417,0.0
492,0.0
2,1, 6,15, 1,22, 0.00,60.00,SummerDesignDay
7,22.798933329118924
142,22.798933253095523
205,22.798929988846275
268,22.798929912822878
393,0.0
396,0.0
399,0.0
402,0.0
403,0.0
417,0.0
492,0.0
2,1, 6,15, 1,23, 0.00,60.00,SummerDesignDay
7,22.340197178239546
142,22.340197142799504
205,22.340195620609784
268,22.34019558516973
393,0.0
396,0.0
399,0.0
402,0.0
403,0.0
417,0.0
492,0.0
2,1, 6,15, 1,24, 0.00,60.00,SummerDesignDay
7,21.869526203546876
142,21.869526187019787
205,21.869525477145075
268,21.86952546061799
393,0.0
396,0.0
399,0.0
402,0.0
403,0.0
417,0.0
492,0.0
1,WINTER DESIGN DAY IN (MID) UK,  53.35,  -2.28,   0.00,  69.00
2,1, 1,15, 0, 1, 0.00,60.00,WinterDesignDay
7,21.69475013056652
142,21.69475013056652
205,17.30512624478763
268,17.30512624478763
393,535.8721682981954
396,535.8721682981954
399,297.33283856629726
402,297.33283856629726
403,1568.8411832103282
417,448.24033806009373
492,108.37269921885786
2,1, 1,15, 0, 2, 0.00,60.00,WinterDesignDay
7,21.694749814010102
142,21.694749814010102
205,17.305320526451172
268,17.305320526451172
393,535.8722538147222
396,535.8722538147222
399,297.2499376883336
402,297.2499376883336
403,1568.696825089975
417,448.19909288285004
492,108.37269956795681
2,1, 1,15, 0, 3, 0.00,60.00,WinterDesignDay
7,21.69475858794804
142,21.69475858794804
205,17.30523887427593
268,17.30523887427593
393,535.8720855645853
396,535.8720855645853
399,297.25214208062243
402,297.25214208062243
403,1568.7011643198566
417,448.2003326628162
492,108.3726995574633
2,1, 1,15, 0, 4, 0.00,60.00,WinterDesignDay
7,21.694763345386377
142,21.694763345386377
205,17.304718727217963
268,17.304718727217963
393,535.8719950373129
396,535.8719950373129
399,297.17755503338736
402,297.17755503338736
403,1568.5515359193942
417,448.1575816912555
492,108.37269991931063
2,1, 1,15, 0, 5, 0.00,60.00,WinterDesignDay
7,21.694753250346412
142,21.694753250346412
205,17.305563838104625
268,17.305563838104625
393,535.8721236213223
396,535.8721236213223
399,297.3269600732561
402,297.3269600732561
403,1568.851113811078
417,448.24317537459376
492,108.37269919484287
2,1, 1,15, 0, 6, 0.00,60.00,WinterDesignDay
7,21.69476019887028
142,21.69476019887028
205,17.305049916486105
268,17.305049916486105
393,535.8720701371192
396,535.8720701371192
399,297.1738108023567
402,297.1738108023567
403,1568.5550600687825
417,448.15858859108073
492,108.37269991078489
2,1, 1,15, 0, 7, 0.00,60.00,WinterDesignDay
7,21.694764680608017
142,21.694764680608017
205,17.30526506844519
268,17.30526506844519
393,535.8719876653407
396,535.8719876653407
399,297.251165756933
402,297.251165756933
403,1568.6989581963837
417,448.19970234182387
492,108.37269956279835
2,1, 1,15, 0, 8, 0.00,60.00,WinterDesignDay
7,21.694770865690632
142,21.694770865690632
205,17.30503577157947
268,17.30503577157947
393,535.8718964828448
396,535.8718964828448
399,297.17383574622704
402,297.17383574622704
403,1568.5547823496336
417,448.1585092427525
492,108.37269991145985
2,1, 1,15, 0, 9, 0.00,60.00,WinterDesignDay
7,21.6947689249643
142,21.6947689249643
205,17.30512929013402
268,17.30512929013402
393,535.8718592879478
396,535.8718592879478
399,297.3328444717414
402,297.3328444717414
403,1568.8405715578376
417,448.24016330223935
492,108.37269922033701
2,1, 1,15, 0,10, 0.00,60.00,WinterDesignDay
7,21.694766111879048
142,21.694766111879048
205,17.304876111807765
268,17.304876111807765
393,535.8719815112461
396,535.8719815112461
399,297.1749816661833
402,297.1749816661833
403,1568.5460741377738
417,448.1560211822211
492,108.37269993252052
2,1, 1,15, 0,11, 0.00,60.00,WinterDesignDay
7,21.69475816521751
142,21.69475816521751
205,17.30543828517959
268,17.30543828517959
393,535.8720134620384
396,535.8720134620384
399,297.32913906057877
402,297.32913906057877
403,1568.8554207451468
417,448.24440592718486
492,108.37269918442746
2,1, 1,15, 0,12, 0.00,60.00,WinterDesignDay
7,21.694760887021538
142,21.694760887021538
205,17.304753076115023
268,17.304753076115023
393,535.8720422069296
396,535.8720422069296
399,297.17716904830314
402,297.17716904830314
403,1568.5507458414245
417,448.1573559546927
492,108.37269992122127
2,1, 1,15, 0,13, 0.00,60.00,WinterDesignDay
7,21.694751897381387
142,21.694751897381387
205,17.30558588272904
268,17.30558588272904
393,535.8721514775227
396,535.8721514775227
399,297.3267635472861
402,297.3267635472861
403,1568.8507718205035
417,448.243077663001
492,108.3726991956699
2,1, 1,15, 0,14, 0.00,60.00,WinterDesignDay
7,21.69475524642734
142,21.69475524642734
205,17.304668012813288
268,17.304668012813288
393,535.8721030585673
396,535.8721030585673
399,297.17815859853584
402,297.17815859853584
403,1568.5530125980476
417,448.15800359944217
492,108.37269991574136
2,1, 1,15, 0,15, 0.00,60.00,WinterDesignDay
7,21.694749300671802
142,21.694749300671802
205,17.305147195347068
268,17.305147195347068
393,535.8722333874091
396,535.8722333874091
399,297.1715877382655
402,297.1715877382655
403,1568.5617815015307
417,448.1605090004374
492,108.37269989453391
2,1, 1,15, 0,16, 0.00,60.00,WinterDesignDay
7,21.69475013056776
142,21.69475013056776
205,17.30512624478913
268,17.30512624478913
393,535.8721682981748
396,535.8721682981748
399,297.3328385662881
402,297.3328385662881
403,1568.8411832103282
417,448.24033806009373
492,108.37269921885786
2,1, 1,15, 0,17, 0.00,60.00,WinterDesignDay
7,21.694749814011203
142,21.694749814011203
205,17.305320526452466
268,17.305320526452466
393,535.8722538147039
396,535.8722538147039
399,297.24993768831985
402,297.24993768831985
403,1568.6968250899008
417,448.19909288282884
492,108.37269956795681
2,1, 1,15, 0,18, 0.00,60.00,WinterDesignDay
7,21.69475858794903
142,21.69475858794903
205,17.30523887427709
268,17.30523887427709
393,535.8720855645715
396,535.8720855645715
399,297.2521420806133
402,297.2521420806133
403,1568.7011643197825
417,448.20033266279495
492,108.3726995574633
2,1, 1,15, 0,19, 0.00,60.00,WinterDesignDay
7,21.694763345387273
142,21.694763345387273
205,17.304718727218987
268,17.304718727218987
393,535.8719950373015
396,535.8719950373015
399,297.1775550333782
402,297.1775550333782
403,1568.5515359194687
417,448.15758169127673
492,108.37269991931063
2,1, 1,15, 0,20, 0.00,60.00,WinterDesignDay
7,21.694753250347183
142,21.694753250347183
205,17.305563838105524
268,17.305563838105524
393,535.8721236213084
396,535.8721236213084
399,297.3269600732469
402,297.3269600732469
403,1568.8511138109666
417,448.2431753745619
492,108.37269919484287
2,1, 1,15, 0,21, 0.00,60.00,WinterDesignDay
7,21.694760198870974
142,21.694760198870974
205,17.30504991648692
268,17.30504991648692
393,535.8720701371078
396,535.8720701371078
399,297.1738108023521
402,297.1738108023521
403,1568.5550600687825
417,448.15858859108073
492,108.37269991078489
2,1, 1,15, 0,22, 0.00,60.00,WinterDesignDay
7,21.69476468060863
142,21.69476468060863
205,17.30526506844592
268,17.30526506844592
393,535.8719876653294
396,535.8719876653294
399,297.25116575692834
402,297.25116575692834
403,1568.6989581963837
417,448.19970234182387
492,108.37269956279835
2,1, 1,15, 0,23, 0.00,60.00,WinterDesignDay
7,21.694770865691165
142,21.694770865691165
205,17.30503577158011
268,17.30503577158011
393,535.8718964828354
396,535.8718964828354
399,297.17383574622016
402,297.17383574622016
403,1568.5547823496336
417,448.1585092427525
492,108.37269991145985
2,1, 1,15, 0,24, 0.00,60.00,WinterDesignDay
7,21.694768924964762
142,21.694768924964762
205,17.305129290134598
268,17.305129290134598
393,535.8718592879386
396,535.8718592879386
399,297.3328444717391
402,297.3328444717391
403,1568.8405715578376
417,448.24016330223935
492,108.37269922033701
End of Data
 Number of Records Written=        1056
