Program Version,EnergyPlus, Version 24.2.0-94a887817b, YMD=2026.03.31 11:03
1,5,Environment Title[],Latitude[deg],Longitude[deg],Time Zone[],Elevation[m]
2,8,Day of Simulation[],Month[],Day of Month[],DST Indicator[1=yes 0=no],Hour[],StartMinute[],EndMinute[],DayType
3,5,Cumulative Day of Simulation[],Month[],Day of Month[],DST Indicator[1=yes 0=no],DayType  ! When Daily Report Variables Requested
4,2,Cumulative Days of Simulation[],Month[]  ! When Monthly Report Variables Requested
5,1,Cumulative Days of Simulation[] ! When Run Period Report Variables Requested
6,1,Calendar Year of Simulation[] ! When Annual Report Variables Requested
7,1,Environment,Site Outdoor Air Drybulb Temperature [C] !Hourly
8,1,Z1,Zone Air Temperature [C] !Hourly
143,1,Z2,Zone Air Temperature [C] !Hourly
206,1,Z3,Zone Air Temperature [C] !Hourly
269,1,Z4,Zone Air Temperature [C] !Hourly
332,1,HOT WATER LOOP,Plant Supply Side Outlet Temperature [C] !Hourly
395,1,Z1 RADIATOR,Baseboard Total Heating Rate [W] !Hourly
396,1,Z1 RADIATOR,Baseboard Hot Water Mass Flow Rate [kg/s] !Hourly
399,1,Z2 RADIATOR,Baseboard Total Heating Rate [W] !Hourly
400,1,Z2 RADIATOR,Baseboard Hot Water Mass Flow Rate [kg/s] !Hourly
403,1,Z3 RADIATOR,Baseboard Total Heating Rate [W] !Hourly
404,1,Z3 RADIATOR,Baseboard Hot Water Mass Flow Rate [kg/s] !Hourly
407,1,Z4 RADIATOR,Baseboard Total Heating Rate [W] !Hourly
408,1,Z4 RADIATOR,Baseboard Hot Water Mass Flow Rate [kg/s] !Hourly
409,1,HEAT PUMP,Heat Pump Load Side Heat Transfer Rate [W] !Hourly
423,1,HEAT PUMP,Heat Pump Load Side Inlet Temperature [C] !Hourly
424,1,HEAT PUMP,Heat Pump Load Side Outlet Temperature [C] !Hourly
425,1,HEAT PUMP,Heat Pump Electricity Rate [W] !Hourly
500,1,SUPPLY PUMP,Pump Electricity Rate [W] !Hourly
501,1,SUPPLY PUMP,Pump Fluid Heat Gain Rate [W] !Hourly
502,1,SUPPLY PUMP,Pump Mass Flow Rate [kg/s] !Hourly
530,1,Baseboard Total Heating Rate All Zones,PythonPlugin:OutputVariable [W] !Hourly
End of Data Dictionary
1,WINTER DESIGN DAY IN (MID) UK,  53.35,  -2.28,   0.00,  69.00
2,1, 1,15, 0, 1, 0.00,60.00,WinterDesignDay
7,-3.0
8,20.999600359545596
143,20.999600359545596
206,20.999600359545596
269,20.999600359545596
332,46.032
395,498.3383668492366
396,0.01762846875
399,498.3383668492366
400,0.01762846875
403,498.3383668492366
404,0.01762846875
407,498.3383668492366
408,0.01762846875
409,1991.2880381195553
423,42.36712850530195
424,46.032
425,766.3002683430124
500,1.9670062110384654
501,1.9670062110384654
502,0.12998674
530,1993.3534673969464
2,1, 1,15, 0, 2, 0.00,60.00,WinterDesignDay
7,-3.0
8,20.99960030883095
143,20.99960030883095
206,20.99960030883095
269,20.99960030883095
332,46.032
395,498.33836787757804
396,0.01762846875
399,498.33836787757804
400,0.01762846875
403,498.33836787757804
404,0.01762846875
407,498.33836787757804
408,0.01762846875
409,1991.288042242479
423,42.3671284977139
424,46.032
425,766.3002699296222
500,1.9670062110324424
501,1.9670062110324424
502,0.12998674
530,1993.3534715103121
2,1, 1,15, 0, 3, 0.00,60.00,WinterDesignDay
7,-3.0
8,20.99960026170577
143,20.99960026170577
206,20.99960026170577
269,20.99960026170577
332,46.032
395,498.33836883313586
396,0.01762846875
399,498.33836883313586
400,0.01762846875
403,498.33836883313586
404,0.01762846875
407,498.33836883313586
408,0.01762846875
409,1991.2880460735907
423,42.36712849066292
424,46.032
425,766.3002714039353
500,1.9670062110268458
501,1.9670062110268458
502,0.12998674
530,1993.3534753325434
2,1, 1,15, 0, 4, 0.00,60.00,WinterDesignDay
7,-3.0
8,20.99960021791595
143,20.99960021791595
206,20.99960021791595
269,20.99960021791595
332,46.032
395,498.3383697210621
396,0.01762846875
399,498.3383697210621
400,0.01762846875
403,498.3383697210621
404,0.01762846875
407,498.3383697210621
408,0.01762846875
409,1991.2880496335497
423,42.367128484110985
424,46.032
425,766.3002727739016
500,1.967006211021645
501,1.967006211021645
502,0.12998674
530,1993.3534788842485
2,1, 1,15, 0, 5, 0.00,60.00,WinterDesignDay
7,-3.0
8,20.999600177225012
143,20.999600177225012
206,20.999600177225012
269,20.999600177225012
332,46.032
395,498.33837054614946
396,0.01762846875
399,498.33837054614946
400,0.01762846875
403,498.33837054614946
404,0.01762846875
407,498.33837054614946
408,0.01762846875
409,1991.288052941568
423,42.367128478022735
424,46.032
425,766.3002740469145
500,1.9670062110168125
501,1.9670062110168125
502,0.12998674
530,1993.3534821845979
2,1, 1,15, 0, 6, 0.00,60.00,WinterDesignDay
7,-3.0
8,20.999600139413495
143,20.999600139413495
206,20.999600139413495
269,20.999600139413495
332,46.032
395,498.3383713128515
396,0.01762846875
399,498.3383713128515
400,0.01762846875
403,498.3383713128515
404,0.01762846875
407,498.3383713128515
408,0.01762846875
409,1991.288056015504
423,42.3671284723653
424,46.032
425,766.3002752298463
500,1.9670062110123223
501,1.9670062110123223
502,0.12998674
530,1993.353485251406
2,1, 1,15, 0, 7, 0.00,60.00,WinterDesignDay
7,-3.0
8,20.99960010427791
143,20.99960010427791
206,20.99960010427791
269,20.99960010427791
332,46.032
395,498.3383720252955
396,0.01762846875
399,498.3383720252955
400,0.01762846875
403,498.3383720252955
404,0.01762846875
407,498.3383720252955
408,0.01762846875
409,1991.2880588719022
423,42.36712846710824
424,46.032
425,766.3002763290639
500,1.9670062110081494
501,1.9670062110081494
502,0.12998674
530,1993.353488101182
2,1, 1,15, 0, 8, 0.00,60.00,WinterDesignDay
7,-3.0
8,20.999600071629075
143,20.999600071629075
206,20.999600071629075
269,20.999600071629075
332,46.032
395,498.338372687316
396,0.01762846875
399,498.338372687316
400,0.01762846875
403,498.338372687316
404,0.01762846875
407,498.338372687316
408,0.01762846875
409,1991.288061526135
423,42.36712846222325
424,46.032
425,766.3002773504827
500,1.9670062110042719
501,1.9670062110042719
502,0.12998674
530,1993.353490749264
2,1, 1,15, 0, 9, 0.00,60.00,WinterDesignDay
7,-3.0
8,20.999600041291124
143,20.999600041291124
206,20.999600041291124
269,20.999600041291124
332,46.032
395,498.3383733024796
396,0.01762846875
399,498.3383733024796
400,0.01762846875
403,498.3383733024796
404,0.01762846875
407,498.3383733024796
408,0.01762846875
409,1991.2880639925086
423,42.367128457684004
424,46.032
425,766.3002782996085
500,1.967006211000669
501,1.967006211000669
502,0.12998674
530,1993.3534932099185
2,1, 1,15, 0,10, 0.00,60.00,WinterDesignDay
7,-3.0
8,20.99960001310053
143,20.99960001310053
206,20.99960001310053
269,20.99960001310053
332,46.032
395,498.3383738741012
396,0.01762846875
399,498.3383738741012
400,0.01762846875
403,498.3383738741012
404,0.01762846875
407,498.3383738741012
408,0.01762846875
409,1991.288066284309
423,42.36712845346605
424,46.032
425,766.300279181554
500,1.967006210997321
501,1.967006210997321
502,0.12998674
530,1993.3534954964048
2,1, 1,15, 0,11, 0.00,60.00,WinterDesignDay
7,-3.0
8,20.999599986905285
143,20.999599986905285
206,20.999599986905285
269,20.999599986905285
332,46.032
395,498.33837440526315
396,0.01762846875
399,498.33837440526315
400,0.01762846875
403,498.33837440526315
404,0.01762846875
407,498.33837440526315
408,0.01762846875
409,1991.2880684138947
423,42.36712844954665
424,46.032
425,766.3002800010746
500,1.9670062109942101
501,1.9670062109942101
502,0.12998674
530,1993.3534976210526
2,1, 1,15, 0,12, 0.00,60.00,WinterDesignDay
7,-3.0
8,20.99959996256411
143,20.99959996256411
206,20.99959996256411
269,20.99959996256411
332,46.032
395,498.338374898829
396,0.01762846875
399,498.338374898829
400,0.01762846875
403,498.338374898829
404,0.01762846875
407,498.338374898829
408,0.01762846875
409,1991.2880703927458
423,42.36712844590467
424,46.032
425,766.300280762589
500,1.9670062109913191
501,1.9670062109913191
502,0.12998674
530,1993.353499595316
2,1, 1,15, 0,13, 0.00,60.00,WinterDesignDay
7,-3.0
8,20.999599939945497
143,20.999599939945497
206,20.999599939945497
269,20.999599939945497
332,46.032
395,498.3383753574653
396,0.01762846875
399,498.3383753574653
400,0.01762846875
403,498.3383753574653
404,0.01762846875
407,498.3383753574653
408,0.01762846875
409,1991.2880722315529
423,42.36712844252043
424,46.032
425,766.3002814702105
500,1.9670062109886328
501,1.9670062109886328
502,0.12998674
530,1993.3535014298611
2,1, 1,15, 0,14, 0.00,60.00,WinterDesignDay
7,-3.0
8,20.999599918927416
143,20.999599918927416
206,20.999599918927416
269,20.999599918927416
332,46.032
395,498.33837578364756
396,0.01762846875
399,498.33837578364756
400,0.01762846875
403,498.33837578364756
404,0.01762846875
407,498.33837578364756
408,0.01762846875
409,1991.2880739402444
423,42.36712843937567
424,46.032
425,766.3002821277602
500,1.9670062109861366
501,1.9670062109861366
502,0.12998674
530,1993.3535031345903
2,1, 1,15, 0,15, 0.00,60.00,WinterDesignDay
7,-3.0
8,20.99959989939665
143,20.99959989939665
206,20.99959989939665
269,20.99959989939665
332,46.032
395,498.33837617967174
396,0.01762846875
399,498.33837617967174
400,0.01762846875
403,498.33837617967174
404,0.01762846875
407,498.33837617967174
408,0.01762846875
409,1991.2880755280212
423,42.367128436453434
424,46.032
425,766.3002827387788
500,1.9670062109838173
501,1.9670062109838173
502,0.12998674
530,1993.353504718687
2,1, 1,15, 0,16, 0.00,60.00,WinterDesignDay
7,-3.0
8,20.999599881247917
143,20.999599881247917
206,20.999599881247917
269,20.999599881247917
332,46.032
395,498.33837654767194
396,0.01762846875
399,498.33837654767194
400,0.01762846875
403,498.33837654767194
404,0.01762846875
407,498.33837654767194
408,0.01762846875
409,1991.2880770034417
423,42.367128433737996
424,46.032
425,766.3002833065595
500,1.967006210981662
501,1.967006210981662
502,0.12998674
530,1993.3535061906878
2,1, 1,15, 0,17, 0.00,60.00,WinterDesignDay
7,-3.0
8,20.99959986438334
143,20.99959986438334
206,20.99959986438334
269,20.99959986438334
332,46.032
395,498.3383768896334
396,0.01762846875
399,498.3383768896334
400,0.01762846875
403,498.3383768896334
404,0.01762846875
407,498.3383768896334
408,0.01762846875
409,1991.2880783744663
423,42.36712843121469
424,46.032
425,766.3002838341661
500,1.967006210979659
501,1.967006210979659
502,0.12998674
530,1993.3535075585337
2,1, 1,15, 0,18, 0.00,60.00,WinterDesignDay
7,-3.0
8,20.999599848712275
143,20.999599848712275
206,20.999599848712275
269,20.999599848712275
332,46.032
395,498.33837720739564
396,0.01762846875
399,498.33837720739564
400,0.01762846875
403,498.33837720739564
404,0.01762846875
407,498.33837720739564
408,0.01762846875
409,1991.288079648468
423,42.367128428869954
424,46.032
425,766.3002843244354
500,1.967006210977798
501,1.967006210977798
502,0.12998674
530,1993.3535088295826
2,1, 1,15, 0,19, 0.00,60.00,WinterDesignDay
7,-3.0
8,20.999599834150224
143,20.999599834150224
206,20.999599834150224
269,20.999599834150224
332,46.032
395,498.33837750266946
396,0.01762846875
399,498.33837750266946
400,0.01762846875
403,498.33837750266946
404,0.01762846875
407,498.33837750266946
408,0.01762846875
409,1991.2880808323089
423,42.36712842669115
424,46.032
425,766.3002847800086
500,1.9670062109760686
501,1.9670062109760686
502,0.12998674
530,1993.3535100106778
2,1, 1,15, 0,20, 0.00,60.00,WinterDesignDay
7,-3.0
8,20.999599820618666
143,20.999599820618666
206,20.999599820618666
269,20.999599820618666
332,46.032
395,498.3383777770483
396,0.01762846875
399,498.3383777770483
400,0.01762846875
403,498.3383777770483
404,0.01762846875
407,498.3383777770483
408,0.01762846875
409,1991.2880819323723
423,42.36712842466653
424,46.032
425,766.3002852033424
500,1.9670062109744615
501,1.9670062109744615
502,0.12998674
530,1993.3535111081933
2,1, 1,15, 0,21, 0.00,60.00,WinterDesignDay
7,-3.0
8,20.999599808044923
143,20.999599808044923
206,20.999599808044923
269,20.999599808044923
332,46.032
395,498.3383780320073
396,0.01762846875
399,498.3383780320073
400,0.01762846875
403,498.3383780320073
404,0.01762846875
407,498.3383780320073
408,0.01762846875
409,1991.2880829545825
423,42.3671284227852
424,46.032
425,766.3002855967158
500,1.967006210972968
501,1.967006210972968
502,0.12998674
530,1993.3535121280293
2,1, 1,15, 0,22, 0.00,60.00,WinterDesignDay
7,-3.0
8,20.9995997963614
143,20.9995997963614
206,20.9995997963614
269,20.9995997963614
332,46.032
395,498.3383782689156
396,0.01762846875
399,498.3383782689156
400,0.01762846875
403,498.3383782689156
404,0.01762846875
407,498.3383782689156
408,0.01762846875
409,1991.2880839044146
423,42.36712842103708
424,46.032
425,766.3002859622361
500,1.9670062109715802
501,1.9670062109715802
502,0.12998674
530,1993.3535130756625
2,1, 1,15, 0,23, 0.00,60.00,WinterDesignDay
7,-3.0
8,20.999599785504913
143,20.999599785504913
206,20.999599785504913
269,20.999599785504913
332,46.032
395,498.3383784890531
396,0.01762846875
399,498.3383784890531
400,0.01762846875
403,498.3383784890531
404,0.01762846875
407,498.3383784890531
408,0.01762846875
409,1991.288084787013
423,42.36712841941271
424,46.032
425,766.3002863018835
500,1.9670062109702913
501,1.9670062109702913
502,0.12998674
530,1993.3535139562125
2,1, 1,15, 0,24, 0.00,60.00,WinterDesignDay
7,-3.0
8,20.999599775416804
143,20.999599775416804
206,20.999599775416804
269,20.999599775416804
332,46.032
395,498.33837869360974
396,0.01762846875
399,498.33837869360974
400,0.01762846875
403,498.33837869360974
404,0.01762846875
407,498.33837869360974
408,0.01762846875
409,1991.2880856071415
423,42.36712841790329
424,46.032
425,766.3002866174905
500,1.9670062109690933
501,1.9670062109690933
502,0.12998674
530,1993.353514774439
End of Data
 Number of Records Written=         528
