Program Version,EnergyPlus, Version 24.2.0-94a887817b, YMD=2025.06.24 14:32
1,5,Environment Title[],Latitude[deg],Longitude[deg],Time Zone[],Elevation[m]
2,8,Day of Simulation[],Month[],Day of Month[],DST Indicator[1=yes 0=no],Hour[],StartMinute[],EndMinute[],DayType
3,5,Cumulative Day of Simulation[],Month[],Day of Month[],DST Indicator[1=yes 0=no],DayType  ! When Daily Report Variables Requested
4,2,Cumulative Days of Simulation[],Month[]  ! When Monthly Report Variables Requested
5,1,Cumulative Days of Simulation[] ! When Run Period Report Variables Requested
6,1,Calendar Year of Simulation[] ! When Annual Report Variables Requested
7,1,Environment,Site Outdoor Air Drybulb Temperature [C] !Hourly
8,1,EXT SURFACE NORTH WEST,Surface Inside Face Temperature [C] !Hourly
9,1,EXT SURFACE NORTH WEST,Surface Outside Face Temperature [C] !Hourly
10,1,EXT SURFACE NORTH WEST,Surface Inside Face Adjacent Air Temperature [C] !Hourly
11,1,EXT SURFACE NORTH WEST,Surface Outside Face Outdoor Air Drybulb Temperature [C] !Hourly
12,1,EXT SURFACE NORTH WEST,Surface Average Face Conduction Heat Transfer Rate [W] !Hourly
13,1,EXT SURFACE NORTH EAST,Surface Inside Face Temperature [C] !Hourly
14,1,EXT SURFACE NORTH EAST,Surface Outside Face Temperature [C] !Hourly
15,1,EXT SURFACE NORTH EAST,Surface Inside Face Adjacent Air Temperature [C] !Hourly
16,1,EXT SURFACE NORTH EAST,Surface Outside Face Outdoor Air Drybulb Temperature [C] !Hourly
17,1,EXT SURFACE NORTH EAST,Surface Average Face Conduction Heat Transfer Rate [W] !Hourly
18,1,EXT SURFACE EAST NORTH,Surface Inside Face Temperature [C] !Hourly
19,1,EXT SURFACE EAST NORTH,Surface Outside Face Temperature [C] !Hourly
20,1,EXT SURFACE EAST NORTH,Surface Inside Face Adjacent Air Temperature [C] !Hourly
21,1,EXT SURFACE EAST NORTH,Surface Outside Face Outdoor Air Drybulb Temperature [C] !Hourly
22,1,EXT SURFACE EAST NORTH,Surface Average Face Conduction Heat Transfer Rate [W] !Hourly
23,1,EXT SURFACE EAST SOUTH,Surface Inside Face Temperature [C] !Hourly
24,1,EXT SURFACE EAST SOUTH,Surface Outside Face Temperature [C] !Hourly
25,1,EXT SURFACE EAST SOUTH,Surface Inside Face Adjacent Air Temperature [C] !Hourly
26,1,EXT SURFACE EAST SOUTH,Surface Outside Face Outdoor Air Drybulb Temperature [C] !Hourly
27,1,EXT SURFACE EAST SOUTH,Surface Average Face Conduction Heat Transfer Rate [W] !Hourly
28,1,EXT SURFACE SOUTH EAST,Surface Inside Face Temperature [C] !Hourly
29,1,EXT SURFACE SOUTH EAST,Surface Outside Face Temperature [C] !Hourly
30,1,EXT SURFACE SOUTH EAST,Surface Inside Face Adjacent Air Temperature [C] !Hourly
31,1,EXT SURFACE SOUTH EAST,Surface Outside Face Outdoor Air Drybulb Temperature [C] !Hourly
32,1,EXT SURFACE SOUTH EAST,Surface Average Face Conduction Heat Transfer Rate [W] !Hourly
33,1,EXT SURFACE SOUTH WEST,Surface Inside Face Temperature [C] !Hourly
34,1,EXT SURFACE SOUTH WEST,Surface Outside Face Temperature [C] !Hourly
35,1,EXT SURFACE SOUTH WEST,Surface Inside Face Adjacent Air Temperature [C] !Hourly
36,1,EXT SURFACE SOUTH WEST,Surface Outside Face Outdoor Air Drybulb Temperature [C] !Hourly
37,1,EXT SURFACE SOUTH WEST,Surface Average Face Conduction Heat Transfer Rate [W] !Hourly
38,1,EXT SURFACE WEST SOUTH,Surface Inside Face Temperature [C] !Hourly
39,1,EXT SURFACE WEST SOUTH,Surface Outside Face Temperature [C] !Hourly
40,1,EXT SURFACE WEST SOUTH,Surface Inside Face Adjacent Air Temperature [C] !Hourly
41,1,EXT SURFACE WEST SOUTH,Surface Outside Face Outdoor Air Drybulb Temperature [C] !Hourly
42,1,EXT SURFACE WEST SOUTH,Surface Average Face Conduction Heat Transfer Rate [W] !Hourly
43,1,EXT SURFACE WEST NORTH,Surface Inside Face Temperature [C] !Hourly
44,1,EXT SURFACE WEST NORTH,Surface Outside Face Temperature [C] !Hourly
45,1,EXT SURFACE WEST NORTH,Surface Inside Face Adjacent Air Temperature [C] !Hourly
46,1,EXT SURFACE WEST NORTH,Surface Outside Face Outdoor Air Drybulb Temperature [C] !Hourly
47,1,EXT SURFACE WEST NORTH,Surface Average Face Conduction Heat Transfer Rate [W] !Hourly
48,1,EXT SURFACE ROOF NW,Surface Inside Face Temperature [C] !Hourly
49,1,EXT SURFACE ROOF NW,Surface Outside Face Temperature [C] !Hourly
50,1,EXT SURFACE ROOF NW,Surface Inside Face Adjacent Air Temperature [C] !Hourly
51,1,EXT SURFACE ROOF NW,Surface Outside Face Outdoor Air Drybulb Temperature [C] !Hourly
52,1,EXT SURFACE ROOF NW,Surface Average Face Conduction Heat Transfer Rate [W] !Hourly
53,1,EXT SURFACE ROOF NE,Surface Inside Face Temperature [C] !Hourly
54,1,EXT SURFACE ROOF NE,Surface Outside Face Temperature [C] !Hourly
55,1,EXT SURFACE ROOF NE,Surface Inside Face Adjacent Air Temperature [C] !Hourly
56,1,EXT SURFACE ROOF NE,Surface Outside Face Outdoor Air Drybulb Temperature [C] !Hourly
57,1,EXT SURFACE ROOF NE,Surface Average Face Conduction Heat Transfer Rate [W] !Hourly
58,1,EXT SURFACE ROOF SE,Surface Inside Face Temperature [C] !Hourly
59,1,EXT SURFACE ROOF SE,Surface Outside Face Temperature [C] !Hourly
60,1,EXT SURFACE ROOF SE,Surface Inside Face Adjacent Air Temperature [C] !Hourly
61,1,EXT SURFACE ROOF SE,Surface Outside Face Outdoor Air Drybulb Temperature [C] !Hourly
62,1,EXT SURFACE ROOF SE,Surface Average Face Conduction Heat Transfer Rate [W] !Hourly
63,1,EXT SURFACE ROOF SW,Surface Inside Face Temperature [C] !Hourly
64,1,EXT SURFACE ROOF SW,Surface Outside Face Temperature [C] !Hourly
65,1,EXT SURFACE ROOF SW,Surface Inside Face Adjacent Air Temperature [C] !Hourly
66,1,EXT SURFACE ROOF SW,Surface Outside Face Outdoor Air Drybulb Temperature [C] !Hourly
67,1,EXT SURFACE ROOF SW,Surface Average Face Conduction Heat Transfer Rate [W] !Hourly
68,1,EXT SURFACE FLOOR NW,Surface Inside Face Temperature [C] !Hourly
69,1,EXT SURFACE FLOOR NW,Surface Outside Face Temperature [C] !Hourly
70,1,EXT SURFACE FLOOR NW,Surface Inside Face Adjacent Air Temperature [C] !Hourly
71,1,EXT SURFACE FLOOR NW,Surface Average Face Conduction Heat Transfer Rate [W] !Hourly
72,1,EXT SURFACE FLOOR NE,Surface Inside Face Temperature [C] !Hourly
73,1,EXT SURFACE FLOOR NE,Surface Outside Face Temperature [C] !Hourly
74,1,EXT SURFACE FLOOR NE,Surface Inside Face Adjacent Air Temperature [C] !Hourly
75,1,EXT SURFACE FLOOR NE,Surface Average Face Conduction Heat Transfer Rate [W] !Hourly
76,1,EXT SURFACE FLOOR SE,Surface Inside Face Temperature [C] !Hourly
77,1,EXT SURFACE FLOOR SE,Surface Outside Face Temperature [C] !Hourly
78,1,EXT SURFACE FLOOR SE,Surface Inside Face Adjacent Air Temperature [C] !Hourly
79,1,EXT SURFACE FLOOR SE,Surface Average Face Conduction Heat Transfer Rate [W] !Hourly
80,1,EXT SURFACE FLOOR SW,Surface Inside Face Temperature [C] !Hourly
81,1,EXT SURFACE FLOOR SW,Surface Outside Face Temperature [C] !Hourly
82,1,EXT SURFACE FLOOR SW,Surface Inside Face Adjacent Air Temperature [C] !Hourly
83,1,EXT SURFACE FLOOR SW,Surface Average Face Conduction Heat Transfer Rate [W] !Hourly
84,1,ZZ,Zone Air Temperature [C] !Hourly
85,1,ZZ,Zone Air System Sensible Heating Energy [J] !Hourly
219,1,ZZ,Zone Predicted Sensible Load to Setpoint Heat Transfer Rate [W] !Hourly
318,1,ZZ PURCHASED AIR,Zone Ideal Loads Zone Total Heating Rate [W] !Hourly
222,1,DistrictHeatingWater:Facility [J] !Hourly
End of Data Dictionary
1,SUMMER DESIGN DAY IN SALFORD ENERGY HOUSE 1.0 (01-01:31-12) JUN HVAC Sizing Pass 1,  53.35,  -2.28,   0.00,  69.00
2,1, 6,15, 1, 1, 0.00,60.00,SummerDesignDay
7,18.983
8,20.65701812469611
9,19.07072604924907
10,21.0000935461605
11,18.985274999051487
12,-9.796837035032887
13,20.65701812469611
14,19.07072604924907
15,21.0000935461605
16,18.985274999051487
17,-9.796837035032887
18,20.65701812469611
19,19.07072604924907
20,21.0000935461605
21,18.985274999051487
22,-9.796837035032887
23,20.65701812469611
24,19.07072604924907
25,21.0000935461605
26,18.985274999051487
27,-9.796837035032887
28,20.65701812469611
29,19.07072604924907
30,21.0000935461605
31,18.985274999051487
32,-9.796837035032887
33,20.65701812469611
34,19.07072604924907
35,21.0000935461605
36,18.985274999051487
37,-9.796837035032887
38,20.65701812469611
39,19.07072604924907
40,21.0000935461605
41,18.985274999051487
42,-9.796837035032887
43,20.65701812469611
44,19.07072604924907
45,21.0000935461605
46,18.985274999051487
47,-9.796837035032887
48,20.726219798880294
49,19.067198971009265
50,21.0000935461605
51,18.97780000310887
52,-17.81912486608628
53,20.726219798880294
54,19.067198971009265
55,21.0000935461605
56,18.97780000310887
57,-17.81912486608628
58,20.726219798880294
59,19.067198971009265
60,21.0000935461605
61,18.97780000310887
62,-17.81912486608628
63,20.726219798880294
64,19.067198971009265
65,21.0000935461605
66,18.97780000310887
67,-17.81912486608628
68,20.999014173880617
69,18.0
70,21.0000935461605
71,-0.0004727510027792106
72,20.999014173880617
73,18.0
74,21.0000935461605
75,-0.0004727510027792106
76,20.999014173880617
77,18.0
78,21.0000935461605
79,-0.0004727510027792106
80,20.999014173880617
81,18.0
82,21.0000935461605
83,-0.0004727510027792106
84,20.9997802878395
85,569522.5102785376
219,158.3494647724981
318,158.46765311529964
222,570483.5512150787
2,1, 6,15, 1, 2, 0.00,60.00,SummerDesignDay
7,18.622
8,20.593966608541717
9,18.724820975210505
10,21.000118198065174
11,18.624274999051487
12,-11.543872826101902
13,20.593966608541717
14,18.724820975210505
15,21.000118198065174
16,18.624274999051487
17,-11.543872826101902
18,20.593966608541717
19,18.724820975210505
20,21.000118198065174
21,18.624274999051487
22,-11.543872826101902
23,20.593966608541717
24,18.724820975210505
25,21.000118198065174
26,18.624274999051487
27,-11.543872826101902
28,20.593966608541717
29,18.724820975210505
30,21.000118198065174
31,18.624274999051487
32,-11.543872826101902
33,20.593966608541717
34,18.724820975210505
35,21.000118198065174
36,18.624274999051487
37,-11.543872826101902
38,20.593966608541717
39,18.724820975210505
40,21.000118198065174
41,18.624274999051487
42,-11.543872826101902
43,20.593966608541717
44,18.724820975210505
45,21.000118198065174
46,18.624274999051487
47,-11.543872826101902
48,20.67639243727729
49,18.7219498970283
50,21.000118198065174
51,18.61680000310887
52,-20.992456013829653
53,20.67639243727729
54,18.7219498970283
55,21.000118198065174
56,18.61680000310887
57,-20.992456013829653
58,20.67639243727729
59,18.7219498970283
60,21.000118198065174
61,18.61680000310887
62,-20.992456013829653
63,20.67639243727729
64,18.7219498970283
65,21.000118198065174
66,18.61680000310887
67,-20.992456013829653
68,20.99563627268829
69,18.0
70,21.000118198065174
71,-0.00047221852574396713
72,20.99563627268829
73,18.0
74,21.000118198065174
75,-0.00047221852574396713
76,20.99563627268829
77,18.0
78,21.000118198065174
79,-0.00047221852574396713
80,20.99563627268829
81,18.0
82,21.000118198065174
83,-0.00047221852574396713
84,20.999763493912845
85,652228.1001202075
219,181.32842458046665
318,181.44942471946814
222,653217.9289900853
2,1, 6,15, 1, 3, 0.00,60.00,SummerDesignDay
7,18.3655
8,20.54978079771078
9,18.479114359223267
10,21.000137203649683
11,18.367774999051484
12,-12.787457338194404
13,20.54978079771078
14,18.479114359223267
15,21.000137203649683
16,18.367774999051484
17,-12.787457338194404
18,20.54978079771078
19,18.479114359223267
20,21.000137203649683
21,18.367774999051484
22,-12.787457338194404
23,20.54978079771078
24,18.479114359223267
25,21.000137203649683
26,18.367774999051484
27,-12.787457338194404
28,20.54978079771078
29,18.479114359223267
30,21.000137203649683
31,18.367774999051484
32,-12.787457338194404
33,20.54978079771078
34,18.479114359223267
35,21.000137203649683
36,18.367774999051484
37,-12.787457338194404
38,20.54978079771078
39,18.479114359223267
40,21.000137203649683
41,18.367774999051484
42,-12.787457338194404
43,20.54978079771078
44,18.479114359223267
45,21.000137203649683
46,18.367774999051484
47,-12.787457338194404
48,20.641354148540835
49,18.476707983905825
50,21.000137203649683
51,18.36030000310887
52,-23.24839577098279
53,20.641354148540835
54,18.476707983905825
55,21.000137203649683
56,18.36030000310887
57,-23.24839577098279
58,20.641354148540835
59,18.476707983905825
60,21.000137203649683
61,18.36030000310887
62,-23.24839577098279
63,20.641354148540835
64,18.476707983905825
65,21.000137203649683
66,18.36030000310887
67,-23.24839577098279
68,20.995865683240496
69,18.0
70,21.000137203649683
71,-0.0004722546889837235
72,20.995865683240496
73,18.0
74,21.000137203649683
75,-0.0004722546889837235
76,20.995865683240496
77,18.0
78,21.000137203649683
79,-0.0004722546889837235
80,20.995865683240496
81,18.0
82,21.000137203649683
83,-0.0004722546889837235
84,20.999762868098898
85,719719.9154930577
219,200.05963056060114
318,200.17678523841772
222,720636.4268583037
2,1, 6,15, 1, 4, 0.00,60.00,SummerDesignDay
7,18.1375
8,20.510641381707543
9,18.26074696537705
10,21.0001505202255
11,18.139774999051486
12,-13.894102294356296
13,20.510641381707543
14,18.26074696537705
15,21.0001505202255
16,18.139774999051486
17,-13.894102294356296
18,20.510641381634127
19,18.260746964940186
20,21.0001505202255
21,18.139774999051486
22,-13.89410229661762
23,20.510641381634127
24,18.260746964940186
25,21.0001505202255
26,18.139774999051486
27,-13.89410229661762
28,20.510641381634127
29,18.260746964940186
30,21.0001505202255
31,18.139774999051486
32,-13.89410229661762
33,20.510641381634127
34,18.260746964940186
35,21.0001505202255
36,18.139774999051486
37,-13.89410229661762
38,20.51064138172466
39,18.26074696547891
40,21.0001505202255
41,18.139774999051486
42,-13.894102293829036
43,20.51064138172466
44,18.26074696547891
45,21.0001505202255
46,18.139774999051486
47,-13.894102293829036
48,20.61029328371098
49,18.258751768060108
50,21.0001505202255
51,18.13230000310887
52,-25.255328164775968
53,20.61029328371098
54,18.258751768060108
55,21.0001505202255
56,18.13230000310887
57,-25.255328164775968
58,20.61029328371098
59,18.258751768060108
60,21.0001505202255
61,18.13230000310887
62,-25.255328164775968
63,20.61029328371098
64,18.258751768060108
65,21.0001505202255
66,18.13230000310887
67,-25.255328164775968
68,20.99610277236031
69,18.0
70,21.0001505202255
71,-0.00047229206263807807
72,20.99610277236031
73,18.0
74,21.0001505202255
75,-0.00047229206263807807
76,20.99610277236031
77,18.0
78,21.0001505202255
79,-0.00047229206263807807
80,20.99610277236031
81,18.0
82,21.0001505202255
83,-0.00047229206263807807
84,20.999765405717284
85,779389.6547591516
219,216.61969834354488
318,216.72961731783795
222,780226.6223442166
2,1, 6,15, 1, 5, 0.00,60.00,SummerDesignDay
7,17.957
8,20.47945963877092
9,18.08783025222547
10,21.000158788162228
11,17.959274999051484
12,-14.768534601070357
13,20.47945963877092
14,18.08783025222547
15,21.000158788162228
16,17.959274999051484
17,-14.768534601070357
18,20.479459500780212
19,18.087829465827294
20,21.000158788162228
21,17.959274999051484
22,-14.768538617186021
23,20.479459500780212
24,18.087829465827294
25,21.000158788162228
26,17.959274999051484
27,-14.768538617186021
28,20.479459500780212
29,18.087829465827294
30,21.000158788162228
31,17.959274999051484
32,-14.768538617186021
33,20.479459500780212
34,18.087829465827294
35,21.000158788162228
36,17.959274999051484
37,-14.768538617186021
38,20.47945974086455
39,18.087830837561288
40,21.000158788162228
41,17.959274999051484
42,-14.768531605639046
43,20.47945974086455
44,18.087830837561288
45,21.000158788162228
46,17.959274999051484
47,-14.768531605639046
48,20.58558352320837
49,18.08616205474477
50,21.000158788162228
51,17.95180000310887
52,-26.84201574133315
53,20.58558352320837
54,18.08616205474477
55,21.000158788162228
56,17.95180000310887
57,-26.84201574133315
58,20.58558352320837
59,18.08616205474477
60,21.000158788162228
61,17.95180000310887
62,-26.84201574133315
63,20.58558352320837
64,18.08616205474477
65,21.000158788162228
66,17.95180000310887
67,-26.84201574133315
68,20.995918844861016
69,18.0
70,21.000158788162228
71,-0.0004722630691406528
72,20.995918844861016
73,18.0
74,21.000158788162228
75,-0.0004722630691406528
76,20.995918844861016
77,18.0
78,21.000158788162228
79,-0.0004722630691406528
80,20.995918844861016
81,18.0
82,21.000158788162228
83,-0.0004722630691406528
84,20.99977259628993
85,826777.8439385212
219,229.76766164273255
318,229.86758810387977
222,827523.3171739671
2,1, 6,15, 1, 6, 0.00,60.00,SummerDesignDay
7,17.994999999999997
8,20.485657785849504
9,18.124052101110536
10,21.00015265959305
11,17.997274999051488
12,-14.580324881937322
13,20.485657785849504
14,18.124052101110536
15,21.00015265959305
16,17.997274999051488
17,-14.580324881937322
18,20.485657537714342
19,18.124050716641413
20,21.00015265959305
21,17.997274999051488
22,-14.580331898162926
23,20.485657537714342
24,18.124050716641413
25,21.00015265959305
26,17.997274999051488
27,-14.580331898162926
28,20.485657537714342
29,18.124050716641413
30,21.00015265959305
31,17.997274999051488
32,-14.580331898162926
33,20.485657537714342
34,18.124050716641413
35,21.00015265959305
36,17.997274999051488
37,-14.580331898162926
38,20.48565821350977
39,18.12405451953934
40,21.00015265959305
41,17.997274999051488
42,-14.580312570806395
43,20.48565821350977
44,18.12405451953934
45,21.00015265959305
46,17.997274999051488
47,-14.580312570806395
48,20.590613826771364
49,18.122323907135566
50,21.00015265959305
51,17.989800003108872
52,-26.502588920563028
53,20.590613826771364
54,18.122323907135566
55,21.00015265959305
56,17.989800003108872
57,-26.502588920563028
58,20.590613826771364
59,18.122323907135566
60,21.00015265959305
61,17.989800003108872
62,-26.502588920563028
63,20.590613826771364
64,18.122323907135566
65,21.00015265959305
66,17.989800003108872
67,-26.502588920563028
68,20.996234777463364
69,18.0
70,21.00015265959305
71,-0.0004723128713242744
72,20.996234777463364
73,18.0
74,21.00015265959305
75,-0.0004723128713242744
76,20.996234777463364
77,18.0
78,21.00015265959305
79,-0.0004723128713242744
80,20.996234777463364
81,18.0
82,21.00015265959305
83,-0.0004723128713242744
84,20.999793456999246
85,815726.7462578444
219,226.68044153460437
318,226.76441017940772
222,816351.8766458678
2,1, 6,15, 1, 7, 0.00,60.00,SummerDesignDay
7,18.3845
8,20.551338831408245
9,18.496878340543898
10,21.00012538478596
11,18.386774999051486
12,-12.68029948253562
13,20.551338831408245
14,18.496878340543898
15,21.00012538478596
16,18.386774999051486
17,-12.68029948253562
18,20.551338686735846
19,18.496877546408406
20,21.00012538478596
21,18.386774999051486
22,-12.680303484368643
23,20.551338686735846
24,18.496877546408406
25,21.00012538478596
26,18.386774999051486
27,-12.680303484368643
28,20.551338686735846
29,18.496877546408406
30,21.00012538478596
31,18.386774999051486
32,-12.680303484368643
33,20.551338686735846
34,18.496877546408406
35,21.00012538478596
36,18.386774999051486
37,-12.680303484368643
38,20.551339589611302
39,18.496882600037424
40,21.00012538478596
41,18.386774999051486
42,-12.680277847284547
43,20.551339589611302
44,18.496882600037424
45,21.00012538478596
46,18.386774999051486
47,-12.680277847284547
48,20.642965971538807
49,18.49446003175148
50,21.00012538478596
51,18.37930000310887
52,-23.062225996146914
53,20.642965971538807
54,18.49446003175148
55,21.00012538478596
56,18.37930000310887
57,-23.062225996146914
58,20.642965971538807
59,18.49446003175148
60,21.00012538478596
61,18.37930000310887
62,-23.062225996146914
63,20.642965971538807
64,18.49446003175148
65,21.00012538478596
66,18.37930000310887
67,-23.062225996146914
68,20.996486349208922
69,18.0
70,21.00012538478596
71,-0.0004723525279541158
72,20.996486349208922
73,18.0
74,21.00012538478596
75,-0.0004723525279541158
76,20.996486349208922
77,18.0
78,21.00012538478596
79,-0.0004723525279541158
80,20.996486349208922
81,18.0
82,21.00012538478596
83,-0.0004723525279541158
84,20.99982913845532
85,712734.3212736343
219,198.05675843586806
318,198.1196577968573
222,713230.7680686862
2,1, 6,15, 1, 8, 0.00,60.00,SummerDesignDay
7,19.3915
8,20.72164826234065
9,19.460897951110812
10,21.00006760119394
11,19.393774999051487
12,-7.772441278526047
13,20.72164826234065
14,19.460897951110812
15,21.00006760119394
16,19.393774999051487
17,-7.772441278526047
18,20.721648253691864
19,19.460897909441783
20,21.00006760119394
21,19.393774999051487
22,-7.772441478205504
23,20.721648253691864
24,19.460897909441783
25,21.00006760119394
26,19.393774999051487
27,-7.772441478205504
28,20.721648305275416
29,19.460898209190947
30,21.00006760119394
31,19.393774999051487
32,-7.772439939193454
33,20.721648305275416
34,19.460898209190947
35,21.00006760119394
36,19.393774999051487
37,-7.772439939193454
38,20.72164920648368
39,19.460903227937884
40,21.00006760119394
41,19.393774999051487
42,-7.772414522922931
43,20.72164920648368
44,19.460903227937884
45,21.00006760119394
46,19.393774999051487
47,-7.772414522922931
48,20.778664743813835
49,19.45668722064406
50,21.00006760119394
51,19.38630000310887
52,-14.17389740463163
53,20.778664743813835
54,19.45668722064406
55,21.00006760119394
56,19.38630000310887
57,-14.17389740463163
58,20.778664743813835
59,19.45668722064406
60,21.00006760119394
61,19.38630000310887
62,-14.17389740463163
63,20.778664743813835
64,19.45668722064406
65,21.00006760119394
66,19.38630000310887
67,-14.17389740463163
68,20.99574829678181
69,18.0
70,21.00006760119394
71,-0.00047223618471437374
72,20.99574829678181
73,18.0
74,21.00006760119394
75,-0.00047223618471437374
76,20.99574829678181
77,18.0
78,21.00006760119394
79,-0.00047223618471437374
80,20.99574829678181
81,18.0
82,21.00006760119394
83,-0.00047223618471437374
84,20.999890846426304
85,447576.44900717493
219,124.38602532269547
318,124.42088080092512
222,447915.1708833304
2,1, 6,15, 1, 9, 0.00,60.00,SummerDesignDay
7,20.7785
8,20.968716503211184
9,20.78969975162967
10,21.011932742348307
11,20.780774999051488
12,-1.092320409603723
13,20.968716503211184
14,20.78969975162967
15,21.011932742348307
16,20.780774999051488
17,-1.092320409603723
18,20.968716503211166
19,20.78969975162967
20,21.011932742348307
21,20.780774999051488
22,-1.0923204096036532
23,20.968716503211166
24,20.78969975162967
25,21.011932742348307
26,20.780774999051488
27,-1.0923204096036532
28,20.96871674843101
29,20.789701136986483
30,21.011932742348307
31,20.780774999051488
32,-1.0923133590853935
33,20.96871674843101
34,20.789701136986483
35,21.011932742348307
36,20.780774999051488
37,-1.0923133590853935
38,20.968717377215906
39,20.789704622005885
40,21.011932742348307
41,20.780774999051488
42,-1.092295740259444
43,20.968717377215906
44,20.789704622005885
45,21.011932742348307
46,20.780774999051488
47,-1.092295740259444
48,20.97734048299206
49,20.783015433561594
50,21.011932742348307
51,20.773300003108872
52,-2.063115328953532
53,20.97734048299206
54,20.783015433561594
55,21.011932742348307
56,20.773300003108872
57,-2.063115328953532
58,20.97734048299206
59,20.783015433561594
60,21.011932742348307
61,20.773300003108872
62,-2.063115328953532
63,20.97734048299206
64,20.783015433561594
65,21.011932742348307
66,20.773300003108872
67,-2.063115328953532
68,21.005893799942108
69,18.0
70,21.011932742348307
71,-0.00047383547585294297
72,21.005893799942108
73,18.0
74,21.011932742348307
75,-0.00047383547585294297
76,21.005893799942108
77,18.0
78,21.011932742348307
79,-0.00047383547585294297
80,21.005893799942108
81,18.0
82,21.011932742348307
83,-0.00047383547585294297
84,21.018540454135255
85,87466.6198178196
219,-3.2932140846509945
318,24.33034916307401
222,87589.25698706644
2,1, 6,15, 1,10, 0.00,60.00,SummerDesignDay
7,22.127499999999998
8,21.328828381147876
9,22.08821300679738
10,21.165664762635817
11,22.129774999051488
12,4.698145643931375
13,21.328828381147876
14,22.08821300679738
15,21.165664762635817
16,22.129774999051488
17,4.698145643931375
18,21.328828381147876
19,22.08821300679738
20,21.165664762635817
21,22.129774999051488
22,4.698145643931375
23,21.328828381147876
24,22.08821300679738
25,21.165664762635817
26,22.129774999051488
27,4.698145643931375
28,21.32882879868812
29,22.08821534425956
30,21.165664762635817
31,22.129774999051488
32,4.698157506715118
33,21.32882879868812
34,22.08821534425956
35,21.165664762635817
36,22.129774999051488
37,4.698157506715118
38,21.328829068578074
39,22.08821683582238
40,21.165664762635817
41,22.129774999051488
42,4.698165029692346
43,21.328829068578074
44,22.08821683582238
45,21.165664762635817
46,22.129774999051488
47,4.698165029692346
48,21.539110391664472
49,22.09198339822433
50,21.165664762635817
51,22.122300003108872
52,5.947272319579161
53,21.539110391664472
54,22.09198339822433
55,21.165664762635817
56,22.122300003108872
57,5.947272319579161
58,21.539110391664472
59,22.09198339822433
60,21.165664762635817
61,22.122300003108872
62,5.947272319579161
63,21.539110391664472
64,22.09198339822433
65,21.165664762635817
66,22.122300003108872
67,5.947272319579161
68,21.1581054714525
69,18.0
70,21.165664762635817
71,-0.000497829433923547
72,21.1581054714525
73,18.0
74,21.165664762635817
75,-0.000497829433923547
76,21.1581054714525
77,18.0
78,21.165664762635817
79,-0.000497829433923547
80,21.1581054714525
81,18.0
82,21.165664762635817
83,-0.000497829433923547
84,21.268512525553437
85,0.0
219,-307.14838852829615
318,0.0
222,0.0
2,1, 6,15, 1,11, 0.00,60.00,SummerDesignDay
7,23.324499999999997
8,21.98924739291112
9,23.25782843187679
10,21.715346190226633
11,23.326774999051487
12,7.837222831086095
13,21.98924739291112
14,23.25782843187679
15,21.715346190226633
16,23.326774999051487
17,7.837222831086095
18,21.98924739291112
19,23.25782843187679
20,21.715346190226633
21,23.326774999051487
22,7.837222831086095
23,21.98924739291112
24,23.25782843187679
25,21.715346190226633
26,23.326774999051487
27,7.837222831086095
28,21.989247937600084
29,23.25783147735906
30,21.715346190226633
31,23.326774999051487
32,7.837238278116727
33,21.989247937600084
34,23.25783147735906
35,21.715346190226633
36,23.326774999051487
37,7.837238278116727
38,21.98924783578061
39,23.25783089410604
40,21.715346190226633
41,23.326774999051487
42,7.83723528548113
43,21.98924783578061
44,23.25783089410604
45,21.715346190226633
46,23.326774999051487
47,7.83723528548113
48,22.351688413953607
49,23.269280885275087
50,21.715346190226633
51,23.319300003108868
52,9.85881019298208
53,22.351688413953607
54,23.269280885275087
55,21.715346190226633
56,23.319300003108868
57,9.85881019298208
58,22.351688413953607
59,23.269280885275087
60,21.715346190226633
61,23.319300003108868
62,9.85881019298208
63,22.351688413953607
64,23.269280885275087
65,21.715346190226633
66,23.319300003108868
67,9.85881019298208
68,21.705673028603435
69,18.0
70,21.715346190226633
71,-0.000584145502045862
72,21.705673028603435
73,18.0
74,21.715346190226633
75,-0.000584145502045862
76,21.705673028603435
77,18.0
78,21.715346190226633
79,-0.000584145502045862
80,21.705673028603435
81,18.0
82,21.715346190226633
83,-0.000584145502045862
84,21.897200221181322
85,0.0
219,-1139.686134320221
318,0.0
222,0.0
2,1, 6,15, 1,12, 0.00,60.00,SummerDesignDay
7,24.227
8,22.784559486278603
9,24.155019756287587
10,22.48808344966983
11,24.229274999051484
12,8.461500537727211
13,22.784559486278603
14,24.155019756287587
15,22.48808344966983
16,24.229274999051484
17,8.461500537727211
18,22.784559486278603
19,24.155019756287587
20,22.48808344966983
21,24.229274999051484
22,8.461500537727211
23,22.784559486278603
24,24.155019756287587
25,22.48808344966983
26,24.229274999051484
27,8.461500537727211
28,22.78456010079149
29,24.15502318905589
30,22.48808344966983
31,24.229274999051484
32,8.461517941461203
33,22.78456010079149
34,24.15502318905589
35,22.48808344966983
36,24.229274999051484
37,8.461517941461203
38,22.784559646121732
39,24.1550206369952
40,22.48808344966983
41,24.229274999051484
42,8.461504972762212
43,22.784559646121732
44,24.1550206369952
45,22.48808344966983
46,24.229274999051484
47,8.461504972762212
48,23.178470440639003
49,24.168079760995738
50,22.48808344966983
51,24.221800003108868
52,10.626139015004663
53,23.178470440639003
54,24.168079760995738
55,22.48808344966983
56,24.221800003108868
57,10.626139015004663
58,23.178470440639003
59,24.168079760995738
60,22.48808344966983
61,24.221800003108868
62,10.626139015004663
63,23.178470440639003
64,24.168079760995738
65,22.48808344966983
66,24.221800003108868
67,10.626139015004663
68,22.478800709570237
69,18.0
70,22.48808344966983
71,-0.0007060178458435838
72,22.478800709570237
73,18.0
74,22.48808344966983
75,-0.0007060178458435838
76,22.478800709570237
77,18.0
78,22.48808344966983
79,-0.0007060178458435838
80,22.478800709570237
81,18.0
82,22.48808344966983
83,-0.0007060178458435838
84,22.6882356402775
85,0.0
219,-2241.990312019378
318,0.0
222,0.0
2,1, 6,15, 1,13, 0.00,60.00,SummerDesignDay
7,24.892000000000003
8,23.548929183949852
9,24.82517311533133
10,23.272720011909737
11,24.894274999051486
12,7.878695710164629
13,23.548929183949852
14,24.82517311533133
15,23.272720011909737
16,24.894274999051486
17,7.878695710164629
18,23.548929323085133
19,24.825173902214257
20,23.272720011909737
21,24.894274999051486
22,7.878699723381041
23,23.548929323085133
24,24.825173902214257
25,23.272720011909737
26,24.894274999051486
27,7.878699723381041
28,23.548929800908443
29,24.825176559008682
30,23.272720011909737
31,24.894274999051486
32,7.878713162427479
33,23.548929800908443
34,24.825176559008682
35,23.272720011909737
36,24.894274999051486
37,7.878713162427479
38,23.548929184311703
39,24.825173115485754
40,23.272720011909737
41,24.894274999051486
42,7.878695706402768
43,23.548929184311703
44,24.825173115485754
45,23.272720011909737
46,24.894274999051486
47,7.878695706402768
48,23.915705071121785
49,24.83685992668366
50,23.272720011909737
51,24.88680000310887
52,9.889746053282789
53,23.915705071121785
54,24.83685992668366
55,23.272720011909737
56,24.88680000310887
57,9.889746053282789
58,23.915705071121785
59,24.83685992668366
60,23.272720011909737
61,24.88680000310887
62,9.889746053282789
63,23.915705071121785
64,24.83685992668366
65,23.272720011909737
66,24.88680000310887
67,9.889746053282789
68,23.26302961035927
69,18.0
70,23.272720011909737
71,-0.0008296401356231356
72,23.26302961035927
73,18.0
74,23.272720011909737
75,-0.0008296401356231356