Program Version,EnergyPlus, Version 24.2.0-94a887817b, YMD=2025.07.04 12:01
1,5,Environment Title[],Latitude[deg],Longitude[deg],Time Zone[],Elevation[m]
2,8,Day of Simulation[],Month[],Day of Month[],DST Indicator[1=yes 0=no],Hour[],StartMinute[],EndMinute[],DayType
3,5,Cumulative Day of Simulation[],Month[],Day of Month[],DST Indicator[1=yes 0=no],DayType  ! When Daily Report Variables Requested
4,2,Cumulative Days of Simulation[],Month[]  ! When Monthly Report Variables Requested
5,1,Cumulative Days of Simulation[] ! When Run Period Report Variables Requested
6,1,Calendar Year of Simulation[] ! When Annual Report Variables Requested
7,1,Environment,Site Outdoor Air Drybulb Temperature [C] !Hourly
8,1,Z1,Zone Air Temperature [C] !Hourly
143,1,Z2,Zone Air Temperature [C] !Hourly
206,1,Z3,Zone Air Temperature [C] !Hourly
269,1,Z4,Zone Air Temperature [C] !Hourly
332,1,HOT WATER LOOP,Plant Supply Side Outlet Temperature [C] !Hourly
395,1,Z1 RADIATOR,Baseboard Total Heating Rate [W] !Hourly
396,1,Z1 RADIATOR,Baseboard Hot Water Mass Flow Rate [kg/s] !Hourly
399,1,Z2 RADIATOR,Baseboard Total Heating Rate [W] !Hourly
400,1,Z2 RADIATOR,Baseboard Hot Water Mass Flow Rate [kg/s] !Hourly
403,1,Z3 RADIATOR,Baseboard Total Heating Rate [W] !Hourly
404,1,Z3 RADIATOR,Baseboard Hot Water Mass Flow Rate [kg/s] !Hourly
407,1,Z4 RADIATOR,Baseboard Total Heating Rate [W] !Hourly
408,1,Z4 RADIATOR,Baseboard Hot Water Mass Flow Rate [kg/s] !Hourly
409,1,HEAT PUMP,Heat Pump Load Side Heat Transfer Rate [W] !Hourly
423,1,HEAT PUMP,Heat Pump Load Side Inlet Temperature [C] !Hourly
424,1,HEAT PUMP,Heat Pump Electricity Rate [W] !Hourly
499,1,SUPPLY PUMP,Pump Electricity Rate [W] !Hourly
500,1,SUPPLY PUMP,Pump Fluid Heat Gain Rate [W] !Hourly
501,1,SUPPLY PUMP,Pump Mass Flow Rate [kg/s] !Hourly
529,1,Baseboard Total Heating Rate All Zones,PythonPlugin:OutputVariable [W] !Hourly
End of Data Dictionary
1,WINTER DESIGN DAY IN (MID) UK,  53.35,  -2.28,   0.00,  69.00
2,1, 1,15, 0, 1, 0.00,60.00,WinterDesignDay
7,-3.0
8,20.998929805646977
143,20.998929805646977
206,18.00007443937688
269,18.00007443937688
332,47.902236650002536
395,498.0502907776101
396,0.029496
399,498.0502907776101
400,0.029496
403,335.0296867436869
404,0.0035519780273437504
407,335.0296867436869
408,0.0035519780273437504
409,1663.990659008287
423,44.83974050835838
424,668.7271458113267
499,1.9689707952906292
500,1.9689707952906292
501,0.12998674
529,1666.159955042594
2,1, 1,15, 0, 2, 0.00,60.00,WinterDesignDay
7,-3.0
8,20.999002830749937
143,20.999002830749937
206,17.999969597735358
269,17.999969597735358
332,47.902406348971205
395,498.05208639815953
396,0.029496
399,498.05208639815953
400,0.029496
403,335.03280138722306
404,0.0035519780273437504
407,335.03280138722306
408,0.0035519780273437504
409,1663.97635404467
423,44.839936534936314
424,668.7239719693184
499,1.968970951196742
500,1.968970951196742
501,0.12998674
529,1666.1697755707653
2,1, 1,15, 0, 3, 0.00,60.00,WinterDesignDay
7,-3.0
8,20.999069275398753
143,20.999069275398753
206,17.999971956207148
269,17.999971956207148
332,47.902564555238605
395,498.05377348612956
396,0.029496
399,498.05377348612956
400,0.029496
403,335.03458385874524
404,0.0035519780273437504
407,335.03458385874524
408,0.0035519780273437504
409,1663.982814909811
423,44.84008285028687
424,668.7289691436779
499,1.9689710675659864
500,1.9689710675659864
501,0.12998674
529,1666.1767146897494
2,1, 1,15, 0, 4, 0.00,60.00,WinterDesignDay
7,-3.0
8,20.99913108030125
143,20.99913108030125
206,17.999990928074592
269,17.999990928074592
332,47.902712227289776
395,498.05535619817624
396,0.029496
399,498.05535619817624
400,0.029496
403,335.03606690247767
404,0.0035519780273437504
407,335.03606690247767
408,0.0035519780273437504
409,1663.9885164749062
423,44.84022002887702
424,668.7335013351988
499,1.9689711766684876
500,1.9689711766684876
501,0.12998674
529,1666.182846201308
2,1, 1,15, 0, 5, 0.00,60.00,WinterDesignDay
7,-3.0
8,20.99918953883784
143,20.99918953883784
206,18.000018721944457
269,18.000018721944457
332,47.90285007944482
395,498.0568235647992
396,0.029496
399,498.0568235647992
400,0.029496
403,335.0373282038942
404,0.0035519780273437504
407,335.0373282038942
408,0.0035519780273437504
409,1663.99356995593
423,44.840348580339146
424,668.7376240748293
499,1.9689712789095704
500,1.9689712789095704
501,0.12998674
529,1666.1883035373871
2,1, 1,15, 0, 6, 0.00,60.00,WinterDesignDay
7,-3.0
8,20.99924550667787
143,20.99924550667787
206,18.000051967909084
269,18.000051967909084
332,47.90297862911472
395,498.0581675816069
396,0.029496
399,498.0581675816069
400,0.029496
403,335.0384164921335
404,0.0035519780273437504
407,335.0384164921335
408,0.0035519780273437504
409,1663.9980467385965
423,44.84046889070219
424,668.7413738992647
499,1.9689713745962536
500,1.9689713745962536
501,0.12998674
529,1666.1931681474807
2,1, 1,15, 0, 7, 0.00,60.00,WinterDesignDay
7,-3.0
8,20.99929945778055
143,20.99929945778055
206,17.99977345418168
269,17.99977345418168
332,47.90309826468663
395,498.05938505531424
396,0.029496
399,498.05938505531424
400,0.029496
403,334.94996438110365
404,0.0035501777343750008
407,334.94996438110365
408,0.0035501777343750008
409,1663.846140576335
423,44.840868102384285
424,668.6821397575662
499,1.9689716921022662
500,1.9689716921022662
501,0.12998674
529,1666.0186988728356
2,1, 1,15, 0, 8, 0.00,60.00,WinterDesignDay
7,-3.0
8,20.99934097457888
143,20.99934097457888
206,17.999939394293804
269,17.999939394293804
332,47.90320938864746
395,498.0606000941415
396,0.029496
399,498.0606000941415
400,0.029496
403,335.0426505946302
404,0.0035519780273437504
407,335.0426505946302
408,0.0035519780273437504
409,1664.0110825179513
423,44.84067565849931
424,668.750114420569
499,1.9689715390453324
500,1.9689715390453324
501,0.12998674
529,1666.2065013775432
2,1, 1,15, 0, 9, 0.00,60.00,WinterDesignDay
7,-3.0
8,20.99938080701714
143,20.99938080701714
206,18.000028492555153
269,18.000028492555153
332,47.90331400959092
395,498.0618309359224
396,0.029496
399,498.0618309359224
400,0.029496
403,335.0426129117756
404,0.0035519780273437504
407,335.0426129117756
408,0.0035519780273437504
409,1664.0128266344327
423,44.84077706947884
424,668.7524029415877
499,1.9689716197007505
500,1.9689716197007505
501,0.12998674
529,1666.208887695396
2,1, 1,15, 0,10, 0.00,60.00,WinterDesignDay
7,-3.0
8,20.999421164413658
143,20.999421164413658
206,17.999727040143103
269,17.999727040143103
332,47.90341223616105
395,498.06288423774697
396,0.029496
399,498.06288423774697
400,0.029496
403,335.0491524848577
404,0.0035519780273437504
407,335.0491524848577
408,0.0035519780273437504
409,1664.004085793405
423,44.840891383153654
424,668.7503806777726
499,1.9689717106180753
500,1.9689717106180753
501,0.12998674
529,1666.2240734452093
2,1, 1,15, 0,11, 0.00,60.00,WinterDesignDay
7,-3.0
8,20.99945139859713
143,20.99945139859713
206,17.99999834031353
269,17.99999834031353
332,47.90350439762301
395,498.0640337363259
396,0.029496
399,498.0640337363259
400,0.029496
403,335.0451677624918
404,0.0035519780273437504
407,335.0451677624918
408,0.0035519780273437504
409,1664.0218133560065
423,44.84095091787473
424,668.7589037560444
499,1.9689717579679877
500,1.9689717579679877
501,0.12998674
529,1666.2184029976352
2,1, 1,15, 0,12, 0.00,60.00,WinterDesignDay
7,-3.0
8,20.999488194087228
143,20.999488194087228
206,17.999787061341657
269,17.999787061341657
332,47.9035914555148
395,498.0649907984863
396,0.029496
399,498.0649907984863
400,0.029496
403,334.9555083720651
404,0.0035501777343750008
407,334.9555083720651
408,0.0035501777343750008
409,1663.8671248093794
423,44.84132267272358
424,668.6980563965597
499,1.9689720536368074
500,1.9689720536368074
501,0.12998674
529,1666.0409983411027
2,1, 1,15, 0,13, 0.00,60.00,WinterDesignDay
7,-3.0
8,20.99951842555783
143,20.99951842555783
206,17.999991872736118
269,17.999991872736118
332,47.90367261618957
395,498.06588076631783
396,0.029496
399,498.06588076631783
400,0.029496
403,335.0473787175193
404,0.0035519780273437504
407,335.0473787175193
408,0.0035519780273437504
409,1664.0298741761057
423,44.84110430088297
424,668.7646959567621
499,1.9689718799584721
500,1.9689718799584721
501,0.12998674
529,1666.226518967674
2,1, 1,15, 0,14, 0.00,60.00,WinterDesignDay
7,-3.0
8,20.99954875070074
143,20.99954875070074
206,17.999728910280687
269,17.999728910280687
332,47.90374899811565
395,498.0667390740836
396,0.029496
399,498.0667390740836
400,0.029496
403,335.05303786338914
404,0.0035519780273437504
407,335.05303786338914
408,0.0035519780273437504
409,1664.0186886991396
423,44.84120126915061
424,668.7613596922287
499,1.968971957080456
500,1.968971957080456
501,0.12998674
529,1666.2395538749456
2,1, 1,15, 0,15, 0.00,60.00,WinterDesignDay
7,-3.0
8,20.999571738462123
143,20.999571738462123
206,17.999716664528528
269,17.999716664528528
332,47.903820896659845
395,498.0676597795793
396,0.029496
399,498.0676597795793
400,0.029496
403,334.9590245098144
404,0.0035501777343750008
407,334.9590245098144
408,0.0035501777343750008
409,1663.8788865644651
423,44.841530466914435
424,668.7062647618916
499,1.9689722189023144
500,1.9689722189023144
501,0.12998674
529,1666.0533685787873
2,1, 1,15, 0,16, 0.00,60.00,WinterDesignDay
7,-3.0
8,20.99959299564598
143,20.99959299564598
206,17.999965610106837
269,17.999965610106837
332,47.90388888505416
395,498.06848369200594
396,0.029496
399,498.06848369200594
400,0.029496
403,335.050205637761
404,0.0035519780273437504
407,335.050205637761
408,0.0035519780273437504
409,1664.0402174051537
423,44.841301533523485
424,668.772134684343
499,1.9689720368240047
500,1.9689720368240047
501,0.12998674
529,1666.2373786595338
2,1, 1,15, 0,17, 0.00,60.00,WinterDesignDay
7,-3.0
8,20.999617748157128
143,20.999617748157128
206,17.999726486345214
269,17.999726486345214
332,47.903953453385576
395,498.06923952264236
396,0.029496
399,498.06923952264236
400,0.029496
403,335.05541803246945
404,0.0035519780273437504
407,335.05541803246945
408,0.0035519780273437504
409,1664.027969566774
423,44.84138864342241
424,668.7681921687367
499,1.9689721061053191
500,1.9689721061053191
501,0.12998674
529,1666.2493151102235
2,1, 1,15, 0,18, 0.00,60.00,WinterDesignDay
7,-3.0
8,20.99963757160811
143,20.99963757160811
206,17.999731958110036
269,17.999731958110036
332,47.90401437941535
395,498.07002424552365
396,0.029496
399,498.07002424552365
400,0.029496
403,334.9610691220911
404,0.0035501777343750008
407,334.9610691220911
408,0.0035501777343750008
409,1663.8872532760643
423,44.84170855113278
424,668.712563102747
499,1.9689723605385323
500,1.9689723605385323
501,0.12998674
529,1666.0621867352295
2,1, 1,15, 0,19, 0.00,60.00,WinterDesignDay
7,-3.0
8,20.99965714382523
143,20.99965714382523
206,17.9999920779361
269,17.9999920779361
332,47.90407186968428
395,498.07068986086864
396,0.029496
399,498.07068986086864
400,0.029496
403,335.0519979225901
404,0.0035519780273437504
407,335.0519979225901
408,0.0035519780273437504
409,1664.0477782036398
423,44.841470602861435
424,668.7779501134922
499,1.9689721712903667
500,1.9689721712903667
501,0.12998674
529,1666.2453755669176
2,1, 1,15, 0,20, 0.00,60.00,WinterDesignDay
7,-3.0
8,20.99968097092436
143,20.99968097092436
206,17.99976050845066
269,17.99976050845066
332,47.90412619337495
395,498.07127554586884
396,0.029496
399,498.07127554586884
400,0.029496
403,335.05699825899586
404,0.0035519780273437504
407,335.05699825899586
408,0.0035519780273437504
409,1664.0347712276325
423,44.84154886527653
424,668.7735470184444
499,1.968972233534998
500,1.968972233534998
501,0.12998674
529,1666.2565476097295
2,1, 1,15, 0,21, 0.00,60.00,WinterDesignDay
7,-3.0
8,20.99970015131724
143,20.99970015131724
206,17.99977191083952
269,17.99977191083952
332,47.904177016607754
395,498.07188568851666
396,0.029496
399,498.07188568851666
400,0.029496
403,334.9624651596729
404,0.0035501777343750008
407,334.9624651596729
408,0.0035501777343750008
409,1663.8933426091623
423,44.8418599811955
424,668.717478162462
499,1.9689724809758418
500,1.9689724809758418
501,0.12998674
529,1666.0687016963789
2,1, 1,15, 0,22, 0.00,60.00,WinterDesignDay
7,-3.0
8,20.999719079862963
143,20.999719079862963
206,18.000035764476078
269,18.000035764476078
332,47.904224506425784
395,498.0723775228656
396,0.029496
399,498.0723775228656
400,0.029496
403,335.0532366182779
404,0.0035519780273437504
407,335.0532366182779
408,0.0035519780273437504
409,1664.0532099038037
423,44.84161324281557
424,668.7824493573423
499,1.9689722847365916
500,1.9689722847365916
501,0.12998674
529,1666.2512282822872
2,1, 1,15, 0,23, 0.00,60.00,WinterDesignDay
7,-3.0
8,20.999742095540647
143,20.999742095540647
206,17.999806532621605
269,17.999806532621605
332,47.904268935905854
395,498.07279395428276
396,0.029496
399,498.07279395428276
400,0.029496
403,335.0580949562744
404,0.0035519780273437504
407,335.0580949562744
408,0.0035519780273437504
409,1664.0395845332641
423,44.841682749145974
424,668.7776475646316
499,1.9689723400172292
500,1.9689723400172292
501,0.12998674
529,1666.2617778211143
2,1, 1,15, 0,24, 0.00,60.00,WinterDesignDay
7,-3.0
8,20.999760213452795
143,20.999760213452795
206,17.999819490312728
269,17.999819490312728
332,47.90430999976073
395,498.07324168730014
396,0.029496
399,498.07324168730014
400,0.029496
403,334.96343273239205
404,0.0035501777343750008
407,334.96343273239205
408,0.0035501777343750008
409,1663.897578385084
423,44.84198516860314
424,668.7211983394664
499,1.9689725805415157
500,1.9689725805415157
501,0.12998674
529,1666.0733488393844
End of Data
 Number of Records Written=         504
