Program Version,EnergyPlus, Version 24.2.0-94a887817b, YMD=2025.06.04 13:01
1,5,Environment Title[],Latitude[deg],Longitude[deg],Time Zone[],Elevation[m]
2,8,Day of Simulation[],Month[],Day of Month[],DST Indicator[1=yes 0=no],Hour[],StartMinute[],EndMinute[],DayType
3,5,Cumulative Day of Simulation[],Month[],Day of Month[],DST Indicator[1=yes 0=no],DayType  ! When Daily Report Variables Requested
4,2,Cumulative Days of Simulation[],Month[]  ! When Monthly Report Variables Requested
5,1,Cumulative Days of Simulation[] ! When Run Period Report Variables Requested
6,1,Calendar Year of Simulation[] ! When Annual Report Variables Requested
7,1,Environment,Site Outdoor Air Drybulb Temperature [C] !Hourly
8,1,EXT SURFACE NORTH WEST,Surface Inside Face Temperature [C] !Hourly
9,1,EXT SURFACE NORTH WEST,Surface Outside Face Temperature [C] !Hourly
10,1,EXT SURFACE NORTH WEST,Surface Inside Face Adjacent Air Temperature [C] !Hourly
11,1,EXT SURFACE NORTH WEST,Surface Outside Face Outdoor Air Drybulb Temperature [C] !Hourly
12,1,EXT SURFACE NORTH WEST,Surface Average Face Conduction Heat Transfer Rate [W] !Hourly
13,1,EXT SURFACE NORTH EAST,Surface Inside Face Temperature [C] !Hourly
14,1,EXT SURFACE NORTH EAST,Surface Outside Face Temperature [C] !Hourly
15,1,EXT SURFACE NORTH EAST,Surface Inside Face Adjacent Air Temperature [C] !Hourly
16,1,EXT SURFACE NORTH EAST,Surface Outside Face Outdoor Air Drybulb Temperature [C] !Hourly
17,1,EXT SURFACE NORTH EAST,Surface Average Face Conduction Heat Transfer Rate [W] !Hourly
18,1,EXT SURFACE EAST NORTH,Surface Inside Face Temperature [C] !Hourly
19,1,EXT SURFACE EAST NORTH,Surface Outside Face Temperature [C] !Hourly
20,1,EXT SURFACE EAST NORTH,Surface Inside Face Adjacent Air Temperature [C] !Hourly
21,1,EXT SURFACE EAST NORTH,Surface Outside Face Outdoor Air Drybulb Temperature [C] !Hourly
22,1,EXT SURFACE EAST NORTH,Surface Average Face Conduction Heat Transfer Rate [W] !Hourly
23,1,EXT SURFACE EAST SOUTH,Surface Inside Face Temperature [C] !Hourly
24,1,EXT SURFACE EAST SOUTH,Surface Outside Face Temperature [C] !Hourly
25,1,EXT SURFACE EAST SOUTH,Surface Inside Face Adjacent Air Temperature [C] !Hourly
26,1,EXT SURFACE EAST SOUTH,Surface Outside Face Outdoor Air Drybulb Temperature [C] !Hourly
27,1,EXT SURFACE EAST SOUTH,Surface Average Face Conduction Heat Transfer Rate [W] !Hourly
28,1,EXT SURFACE SOUTH EAST,Surface Inside Face Temperature [C] !Hourly
29,1,EXT SURFACE SOUTH EAST,Surface Outside Face Temperature [C] !Hourly
30,1,EXT SURFACE SOUTH EAST,Surface Inside Face Adjacent Air Temperature [C] !Hourly
31,1,EXT SURFACE SOUTH EAST,Surface Outside Face Outdoor Air Drybulb Temperature [C] !Hourly
32,1,EXT SURFACE SOUTH EAST,Surface Average Face Conduction Heat Transfer Rate [W] !Hourly
33,1,EXT SURFACE SOUTH WEST,Surface Inside Face Temperature [C] !Hourly
34,1,EXT SURFACE SOUTH WEST,Surface Outside Face Temperature [C] !Hourly
35,1,EXT SURFACE SOUTH WEST,Surface Inside Face Adjacent Air Temperature [C] !Hourly
36,1,EXT SURFACE SOUTH WEST,Surface Outside Face Outdoor Air Drybulb Temperature [C] !Hourly
37,1,EXT SURFACE SOUTH WEST,Surface Average Face Conduction Heat Transfer Rate [W] !Hourly
38,1,EXT SURFACE WEST SOUTH,Surface Inside Face Temperature [C] !Hourly
39,1,EXT SURFACE WEST SOUTH,Surface Outside Face Temperature [C] !Hourly
40,1,EXT SURFACE WEST SOUTH,Surface Inside Face Adjacent Air Temperature [C] !Hourly
41,1,EXT SURFACE WEST SOUTH,Surface Outside Face Outdoor Air Drybulb Temperature [C] !Hourly
42,1,EXT SURFACE WEST SOUTH,Surface Average Face Conduction Heat Transfer Rate [W] !Hourly
43,1,EXT SURFACE WEST NORTH,Surface Inside Face Temperature [C] !Hourly
44,1,EXT SURFACE WEST NORTH,Surface Outside Face Temperature [C] !Hourly
45,1,EXT SURFACE WEST NORTH,Surface Inside Face Adjacent Air Temperature [C] !Hourly
46,1,EXT SURFACE WEST NORTH,Surface Outside Face Outdoor Air Drybulb Temperature [C] !Hourly
47,1,EXT SURFACE WEST NORTH,Surface Average Face Conduction Heat Transfer Rate [W] !Hourly
48,1,EXT SURFACE ROOF NW,Surface Inside Face Temperature [C] !Hourly
49,1,EXT SURFACE ROOF NW,Surface Outside Face Temperature [C] !Hourly
50,1,EXT SURFACE ROOF NW,Surface Inside Face Adjacent Air Temperature [C] !Hourly
51,1,EXT SURFACE ROOF NW,Surface Outside Face Outdoor Air Drybulb Temperature [C] !Hourly
52,1,EXT SURFACE ROOF NW,Surface Average Face Conduction Heat Transfer Rate [W] !Hourly
53,1,EXT SURFACE ROOF NE,Surface Inside Face Temperature [C] !Hourly
54,1,EXT SURFACE ROOF NE,Surface Outside Face Temperature [C] !Hourly
55,1,EXT SURFACE ROOF NE,Surface Inside Face Adjacent Air Temperature [C] !Hourly
56,1,EXT SURFACE ROOF NE,Surface Outside Face Outdoor Air Drybulb Temperature [C] !Hourly
57,1,EXT SURFACE ROOF NE,Surface Average Face Conduction Heat Transfer Rate [W] !Hourly
58,1,EXT SURFACE ROOF SE,Surface Inside Face Temperature [C] !Hourly
59,1,EXT SURFACE ROOF SE,Surface Outside Face Temperature [C] !Hourly
60,1,EXT SURFACE ROOF SE,Surface Inside Face Adjacent Air Temperature [C] !Hourly
61,1,EXT SURFACE ROOF SE,Surface Outside Face Outdoor Air Drybulb Temperature [C] !Hourly
62,1,EXT SURFACE ROOF SE,Surface Average Face Conduction Heat Transfer Rate [W] !Hourly
63,1,EXT SURFACE ROOF SW,Surface Inside Face Temperature [C] !Hourly
64,1,EXT SURFACE ROOF SW,Surface Outside Face Temperature [C] !Hourly
65,1,EXT SURFACE ROOF SW,Surface Inside Face Adjacent Air Temperature [C] !Hourly
66,1,EXT SURFACE ROOF SW,Surface Outside Face Outdoor Air Drybulb Temperature [C] !Hourly
67,1,EXT SURFACE ROOF SW,Surface Average Face Conduction Heat Transfer Rate [W] !Hourly
68,1,EXT SURFACE FLOOR NW,Surface Inside Face Temperature [C] !Hourly
69,1,EXT SURFACE FLOOR NW,Surface Outside Face Temperature [C] !Hourly
70,1,EXT SURFACE FLOOR NW,Surface Inside Face Adjacent Air Temperature [C] !Hourly
71,1,EXT SURFACE FLOOR NW,Surface Average Face Conduction Heat Transfer Rate [W] !Hourly
72,1,EXT SURFACE FLOOR NE,Surface Inside Face Temperature [C] !Hourly
73,1,EXT SURFACE FLOOR NE,Surface Outside Face Temperature [C] !Hourly
74,1,EXT SURFACE FLOOR NE,Surface Inside Face Adjacent Air Temperature [C] !Hourly
75,1,EXT SURFACE FLOOR NE,Surface Average Face Conduction Heat Transfer Rate [W] !Hourly
76,1,EXT SURFACE FLOOR SE,Surface Inside Face Temperature [C] !Hourly
77,1,EXT SURFACE FLOOR SE,Surface Outside Face Temperature [C] !Hourly
78,1,EXT SURFACE FLOOR SE,Surface Inside Face Adjacent Air Temperature [C] !Hourly
79,1,EXT SURFACE FLOOR SE,Surface Average Face Conduction Heat Transfer Rate [W] !Hourly
80,1,EXT SURFACE FLOOR SW,Surface Inside Face Temperature [C] !Hourly
81,1,EXT SURFACE FLOOR SW,Surface Outside Face Temperature [C] !Hourly
82,1,EXT SURFACE FLOOR SW,Surface Inside Face Adjacent Air Temperature [C] !Hourly
83,1,EXT SURFACE FLOOR SW,Surface Average Face Conduction Heat Transfer Rate [W] !Hourly
84,1,ZONE ONE,Zone Air Temperature [C] !Hourly
85,1,ZONE ONE,Zone Air System Sensible Heating Energy [J] !Hourly
219,1,ZONE ONE,Zone Predicted Sensible Load to Setpoint Heat Transfer Rate [W] !Hourly
318,1,ZONE ONE PURCHASED AIR,Zone Ideal Loads Zone Total Heating Rate [W] !Hourly
222,1,DistrictHeatingWater:Facility [J] !Hourly
End of Data Dictionary
1,SUMMER DESIGN DAY IN SALFORD ENERGY HOUSE 1.0 (01-01:31-12) JUN HVAC Sizing Pass 1,  53.35,  -2.28,   0.00,  69.00
2,1, 6,15, 1, 1, 0.00,60.00,SummerDesignDay
7,18.983
8,20.657018124475773
9,19.07072604924395
10,21.00009354615606
11,18.985274999051487
12,-9.796837033836141
13,20.657018124475773
14,19.07072604924395
15,21.00009354615606
16,18.985274999051487
17,-9.796837033836141
18,20.657018124475773
19,19.07072604924395
20,21.00009354615606
21,18.985274999051487
22,-9.796837033836141
23,20.657018124475773
24,19.07072604924395
25,21.00009354615606
26,18.985274999051487
27,-9.796837033836141
28,20.657018124475773
29,19.07072604924395
30,21.00009354615606
31,18.985274999051487
32,-9.796837033836141
33,20.657018124475773
34,19.07072604924395
35,21.00009354615606
36,18.985274999051487
37,-9.796837033836141
38,20.657018124475773
39,19.07072604924395
40,21.00009354615606
41,18.985274999051487
42,-9.796837033836141
43,20.657018124475773
44,19.07072604924395
45,21.00009354615606
46,18.985274999051487
47,-9.796837033836141
48,20.726219798748396
49,19.067198971004228
50,21.00009354615606
51,18.97780000310887
52,-17.819124864967677
53,20.726219798748396
54,19.067198971004228
55,21.00009354615606
56,18.97780000310887
57,-17.819124864967677
58,20.726219798748396
59,19.067198971004228
60,21.00009354615606
61,18.97780000310887
62,-17.819124864967677
63,20.726219798748396
64,19.067198971004228
65,21.00009354615606
66,18.97780000310887
67,-17.819124864967677
68,20.99901417419519
69,18.0
70,21.00009354615606
71,-0.0004727510028287978
72,20.99901417419519
73,18.0
74,21.00009354615606
75,-0.0004727510028287978
76,20.99901417419519
77,18.0
78,21.00009354615606
79,-0.0004727510028287978
80,20.99901417419519
81,18.0
82,21.00009354615606
83,-0.0004727510028287978
84,20.99978028790719
85,569522.505468968
219,158.3494633664055
318,158.4676517076067
222,570483.5461473842
2,1, 6,15, 1, 2, 0.00,60.00,SummerDesignDay
7,18.622
8,20.59396660836393
9,18.724820975209965
10,21.000118198055908
11,18.624274999051487
12,-11.543872825004797
13,20.59396660836393
14,18.724820975209965
15,21.000118198055908
16,18.624274999051487
17,-11.543872825004797
18,20.59396660836393
19,18.724820975209965
20,21.000118198055908
21,18.624274999051487
22,-11.543872825004797
23,20.59396660836393
24,18.724820975209965
25,21.000118198055908
26,18.624274999051487
27,-11.543872825004797
28,20.59396660836393
29,18.724820975209965
30,21.000118198055908
31,18.624274999051487
32,-11.543872825004797
33,20.59396660836393
34,18.724820975209965
35,21.000118198055908
36,18.624274999051487
37,-11.543872825004797
38,20.59396660836393
39,18.724820975209965
40,21.000118198055908
41,18.624274999051487
42,-11.543872825004797
43,20.59396660836393
44,18.724820975209965
45,21.000118198055908
46,18.624274999051487
47,-11.543872825004797
48,20.676392437170534
49,18.721949897027848
50,21.000118198055908
51,18.61680000310887
52,-20.992456012682933
53,20.676392437170534
54,18.721949897027848
55,21.000118198055908
56,18.61680000310887
57,-20.992456012682933
58,20.676392437170534
59,18.721949897027848
60,21.000118198055908
61,18.61680000310887
62,-20.992456012682933
63,20.676392437170534
64,18.721949897027848
65,21.000118198055908
66,18.61680000310887
67,-20.992456012682933
68,20.995636273696086
69,18.0
70,21.000118198055908
71,-0.00047221852590283105
72,20.995636273696086
73,18.0
74,21.000118198055908
75,-0.00047221852590283105
76,20.995636273696086
77,18.0
78,21.000118198055908
79,-0.00047221852590283105
80,20.995636273696086
81,18.0
82,21.000118198055908
83,-0.00047221852590283105
84,20.999763493983316
85,652228.0958129319
219,181.3284233146221
318,181.44942345233642
222,653217.9244284111
2,1, 6,15, 1, 3, 0.00,60.00,SummerDesignDay
7,18.3655
8,20.5497807975364
9,18.47911435922249
10,21.0001372036344
11,18.367774999051484
12,-12.787457337119568
13,20.5497807975364
14,18.47911435922249
15,21.0001372036344
16,18.367774999051484
17,-12.787457337119568
18,20.5497807975364
19,18.47911435922249
20,21.0001372036344
21,18.367774999051484
22,-12.787457337119568
23,20.5497807975364
24,18.47911435922249
25,21.0001372036344
26,18.367774999051484
27,-12.787457337119568
28,20.5497807975364
29,18.47911435922249
30,21.0001372036344
31,18.367774999051484
32,-12.787457337119568
33,20.5497807975364
34,18.47911435922249
35,21.0001372036344
36,18.367774999051484
37,-12.787457337119568
38,20.5497807975364
39,18.47911435922249
40,21.0001372036344
41,18.367774999051484
42,-12.787457337119568
43,20.5497807975364
44,18.47911435922249
45,21.0001372036344
46,18.367774999051484
47,-12.787457337119568
48,20.64135414843376
49,18.476707983905126
50,21.0001372036344
51,18.36030000310887
52,-23.248395769834964
53,20.64135414843376
54,18.476707983905126
55,21.0001372036344
56,18.36030000310887
57,-23.248395769834964
58,20.64135414843376
59,18.476707983905126
60,21.0001372036344
61,18.36030000310887
62,-23.248395769834964
63,20.64135414843376
64,18.476707983905126
65,21.0001372036344
66,18.36030000310887
67,-23.248395769834964
68,20.995865684194726
69,18.0
70,21.0001372036344
71,-0.000472254689134144
72,20.995865684194726
73,18.0
74,21.0001372036344
75,-0.000472254689134144
76,20.995865684194726
77,18.0
78,21.0001372036344
79,-0.000472254689134144
80,20.995865684194726
81,18.0
82,21.0001372036344
83,-0.000472254689134144
84,20.999762868167913
85,719719.9114377751
219,200.0596293718092
318,200.17678404860146
222,720636.4225749653
2,1, 6,15, 1, 4, 0.00,60.00,SummerDesignDay
7,18.1375
8,20.51064138153798
9,18.260746965376086
10,21.00015052020551
11,18.139774999051486
12,-13.894102293312276
13,20.51064138153798
14,18.260746965376086
15,21.00015052020551
16,18.139774999051486
17,-13.894102293312276
18,20.510641381554336
19,18.260746965473423
20,21.00015052020551
21,18.139774999051486
22,-13.894102292808425
23,20.510641381523815
24,18.260746965291794
25,21.00015052020551
26,18.139774999051486
27,-13.89410229374861
28,20.510641381464566
29,18.260746964939223
30,21.00015052020551
31,18.139774999051486
32,-13.894102295573601
33,20.510641381464566
34,18.260746964939223
35,21.00015052020551
36,18.139774999051486
37,-13.894102295573601
38,20.510641381463806
39,18.260746964934697
40,21.00015052020551
41,18.139774999051486
42,-13.894102295597033
43,20.510641381463806
44,18.260746964934697
45,21.00015052020551
46,18.139774999051486
47,-13.894102295597033
48,20.610293283604904
49,18.258751768059213
50,21.00015052020551
51,18.13230000310887
52,-25.255328163640844
53,20.610293283604904
54,18.258751768059213
55,21.00015052020551
56,18.13230000310887
57,-25.255328163640844
58,20.610293283604904
59,18.258751768059213
60,21.00015052020551
61,18.13230000310887
62,-25.255328163640844
63,20.610293283604904
64,18.258751768059213
65,21.00015052020551
66,18.13230000310887
67,-25.255328163640844
68,20.996102773259178
69,18.0
70,21.00015052020551
71,-0.000472292062779772
72,20.996102773259178
73,18.0
74,21.00015052020551
75,-0.000472292062779772
76,20.996102773259178
77,18.0
78,21.00015052020551
79,-0.000472292062779772
80,20.996102773259178
81,18.0
82,21.00015052020551
83,-0.000472292062779772
84,20.99976540578415
85,779389.6509588083
219,216.61969723220727
318,216.729616205715
222,780226.618340574
2,1, 6,15, 1, 5, 0.00,60.00,SummerDesignDay
7,17.957
8,20.47945963861544
9,18.08783025222447
10,21.0001587881409
11,17.959274999051484
12,-14.7685346001136
13,20.47945963861544
14,18.08783025222447
15,21.0001587881409
16,17.959274999051484
17,-14.7685346001136
18,20.479459738766458
19,18.08783082646106
20,21.0001587881409
21,17.959274999051484
22,-14.768531661422013
23,20.479459641401544
24,18.087830271390445
25,21.0001587881409
26,17.959274999051484
27,-14.768534496558566
28,20.479459500624735
29,18.087829465826292
30,21.0001587881409
31,17.959274999051484
32,-14.768538616229298
33,20.479459500624735
34,18.087829465826292
35,21.0001587881409
36,17.959274999051484
37,-14.768538616229298
38,20.479459498682115
39,18.087829454727064
40,21.0001587881409
41,17.959274999051484
42,-14.768538672968937
43,20.479459498682115
44,18.087829454727064
45,21.0001587881409
46,17.959274999051484
47,-14.768538672968937
48,20.585583523109207
49,18.086162054743824
50,21.0001587881409
51,17.95180000310887
52,-26.842015740272934
53,20.585583523109207
54,18.086162054743824
55,21.0001587881409
56,17.95180000310887
57,-26.842015740272934
58,20.585583523109207
59,18.086162054743824
60,21.0001587881409
61,17.95180000310887
62,-26.842015740272934
63,20.585583523109207
64,18.086162054743824
65,21.0001587881409
66,17.95180000310887
67,-26.842015740272934
68,20.995918845802944
69,18.0
70,21.0001587881409
71,-0.0004722630692891343
72,20.995918845802944
73,18.0
74,21.0001587881409
75,-0.0004722630692891343
76,20.995918845802944
77,18.0
78,21.0001587881409
79,-0.0004722630692891343
80,20.995918845802944
81,18.0
82,21.0001587881409
83,-0.0004722630692891343
84,20.999772596350965
85,826777.8510367735
219,229.7676635664244
318,229.86759002822336
222,827523.324101604
2,1, 6,15, 1, 6, 0.00,60.00,SummerDesignDay
7,17.994999999999997
8,20.485657785593517
9,18.124052101109477
10,21.00015265957208
11,17.997274999051488
12,-14.580324880357896
13,20.485657785593517
14,18.124052101109477
15,21.00015265957208
16,17.997274999051488
17,-14.580324880357896
18,20.485658199346556
19,18.12405444142861
20,21.00015265957208
21,17.997274999051488
22,-14.580312965795777
23,20.485658143748452
24,18.12405414436988
25,21.00015265957208
26,17.997274999051488
27,-14.580314447644767
28,20.485657537458348
29,18.124050716640355
30,21.00015265957208
31,17.997274999051488
32,-14.580331896583466
33,20.485657537458348
34,18.124050716640355
35,21.00015265957208
36,17.997274999051488
37,-14.580331896583466
38,20.485657531887895
39,18.124050685297288
40,21.00015265957208
41,17.997274999051488
42,-14.58033205587032
43,20.485657531887895
44,18.124050685297288
45,21.00015265957208
46,17.997274999051488
47,-14.58033205587032
48,20.590613826599252
49,18.122323907134582
50,21.00015265957208
51,17.989800003108872
52,-26.502588918717088
53,20.590613826599252
54,18.122323907134582
55,21.00015265957208
56,17.989800003108872
57,-26.502588918717088
58,20.590613826599252
59,18.122323907134582
60,21.00015265957208
61,17.989800003108872
62,-26.502588918717088
63,20.590613826599252
64,18.122323907134582
65,21.00015265957208
66,17.989800003108872
67,-26.502588918717088
68,20.996234778335808
69,18.0
70,21.00015265957208
71,-0.0004723128714618022
72,20.996234778335808
73,18.0
74,21.00015265957208
75,-0.0004723128714618022
76,20.996234778335808
77,18.0
78,21.00015265957208
79,-0.0004723128714618022
80,20.996234778335808
81,18.0
82,21.00015265957208
83,-0.0004723128714618022
84,20.99979345705541
85,815726.7527079581
219,226.6804432833063
318,226.76441192850723
222,816351.8829426259
2,1, 6,15, 1, 7, 0.00,60.00,SummerDesignDay
7,18.3845
8,20.551338831167
9,18.496878340542885
10,21.000125384767877
11,18.386774999051486
12,-12.680299481050024
13,20.551338831167
14,18.496878340542885
15,21.000125384767877
16,18.386774999051486
17,-12.680299481050024
18,20.55133958176375
19,18.49688255743917
20,21.000125384767877
21,18.386774999051486
22,-12.680278061939639
23,20.55133958176114
24,18.496882557438862
25,21.000125384767877
26,18.386774999051486
27,-12.680278061932873
28,20.5513386864946
29,18.49687754640739
30,21.000125384767877
31,18.386774999051486
32,-12.68030348288304
33,20.5513386864946
34,18.49687754640739
35,21.000125384767877
36,18.386774999051486
37,-12.68030348288304
38,20.551338678889344
39,18.49687750381028
40,21.000125384767877
41,18.386774999051486
42,-12.680303699026535
43,20.551338678889344
44,18.49687750381028
45,21.000125384767877
46,18.386774999051486
47,-12.680303699026535
48,20.64296597137734
49,18.494460031750567
50,21.000125384767877
51,18.37930000310887
52,-23.06222599441849
53,20.64296597137734
54,18.494460031750567
55,21.000125384767877
56,18.37930000310887
57,-23.06222599441849
58,20.64296597137734
59,18.494460031750567
60,21.000125384767877
61,18.37930000310887
62,-23.06222599441849
63,20.64296597137734
64,18.494460031750567
65,21.000125384767877
66,18.37930000310887
67,-23.06222599441849
68,20.996486350023144
69,18.0
70,21.000125384767877
71,-0.00047235252808246604
72,20.996486350023144
73,18.0
74,21.000125384767877
75,-0.00047235252808246604
76,20.996486350023144
77,18.0
78,21.000125384767877
79,-0.00047235252808246604
80,20.996486350023144
81,18.0
82,21.000125384767877
83,-0.00047235252808246604
84,20.999829138503312
85,712734.3213414036
219,198.0567584180983
318,198.11965777882688
222,713230.7680037767
2,1, 6,15, 1, 8, 0.00,60.00,SummerDesignDay
7,19.3915
8,20.72164826213897
9,19.460897951110336
10,21.000067601188285
11,19.393774999051487
12,-7.77244127728224
13,20.72164826213897
14,19.460897951110336
15,21.000067601188285
16,19.393774999051487
17,-7.77244127728224
18,20.72164919730401
19,19.460903177708637
20,21.000067601188285
21,19.393774999051487
22,-7.772414776457272
23,20.72164919730401
24,19.460903177708637
25,21.000067601188285
26,19.393774999051487
27,-7.772414776457272
28,20.721648305073735
29,19.460898209190475
30,21.000067601188285
31,19.393774999051487
32,-7.772439937949651
33,20.721648305073735
34,19.460898209190475
35,21.000067601188285
36,19.393774999051487
37,-7.772439937949651
38,20.721648244512195
39,19.460897859212533
40,21.000067601188285
41,19.393774999051487
42,-7.772441731739859
43,20.721648244512195
44,19.460897859212533
45,21.000067601188285
46,19.393774999051487
47,-7.772441731739859
48,20.778664743679435
49,19.456687220643683
50,21.000067601188285
51,19.38630000310887
52,-14.173897403189585
53,20.778664743679435
54,19.456687220643683
55,21.000067601188285
56,19.38630000310887
57,-14.173897403189585
58,20.778664743679435
59,19.456687220643683
60,21.000067601188285
61,19.38630000310887
62,-14.173897403189585
63,20.778664743679435
64,19.456687220643683
65,21.000067601188285
66,19.38630000310887
67,-14.173897403189585
68,20.995748297766315
69,18.0
70,21.000067601188285
71,-0.00047223618486956666
72,20.995748297766315
73,18.0
74,21.000067601188285
75,-0.00047223618486956666
76,20.995748297766315
77,18.0
78,21.000067601188285
79,-0.00047223618486956666
80,20.995748297766315
81,18.0
82,21.000067601188285
83,-0.00047223618486956666
84,20.999890846459323
85,447576.44957976846
219,124.38602545043332
318,124.42088092856085
222,447915.1713428191
2,1, 6,15, 1, 9, 0.00,60.00,SummerDesignDay
7,20.7785
8,20.968716500438084
9,20.78969975149383
10,21.011932739037192
11,20.780774999051488
12,-1.092320393203313
13,20.968716500438084
14,20.78969975149383
15,21.011932739037192
16,20.780774999051488
17,-1.092320393203313
18,20.9687173648049
19,20.78970456805075
20,21.011932739037192
21,20.780774999051488
22,-1.0922959966624086
23,20.9687173648049
24,20.78970456805075
25,21.011932739037192
26,20.780774999051488
27,-1.0922959966624086
28,20.968716745657915
29,20.789701136850645
30,21.011932739037192
31,20.780774999051488
32,-1.092313342685019
33,20.968716745657915
34,20.789701136850645
35,21.011932739037192
36,20.780774999051488
37,-1.092313342685019
38,20.968716490800166
39,20.78969969767454
40,21.011932739037192
41,20.780774999051488
42,-1.092320666006653
43,20.968716490800166
44,20.78969969767454
45,21.011932739037192
46,20.780774999051488
47,-1.092320666006653
48,20.9773404801087
49,20.783015433419866
50,21.011932739037192
51,20.773300003108872
52,-2.0631152992961503
53,20.9773404801087
54,20.783015433419866
55,21.011932739037192
56,20.773300003108872
57,-2.0631152992961503
58,20.9773404801087
59,20.783015433419866
60,21.011932739037192
61,20.773300003108872
62,-2.0631152992961503
63,20.9773404801087
64,20.783015433419866
65,21.011932739037192
66,20.773300003108872
67,-2.0631152992961503
68,21.005893798218494
69,18.0
70,21.011932739037192
71,-0.00047383547558124017
72,21.005893798218494
73,18.0
74,21.011932739037192
75,-0.00047383547558124017
76,21.005893798218494
77,18.0
78,21.011932739037192
79,-0.00047383547558124017
80,21.005893798218494
81,18.0
82,21.011932739037192
83,-0.00047383547558124017
84,21.018540449759115
85,87466.62020554986
219,-3.293207018033117
318,24.33034925587305
222,87589.25732114297
2,1, 6,15, 1,10, 0.00,60.00,SummerDesignDay
7,22.127499999999998
8,21.328828372886285
9,22.088213006376726
10,21.165664752658465
11,22.129774999051488
12,4.698145692369613
13,21.328828372886285
14,22.088213006376726
15,21.165664752658465
16,22.129774999051488
17,4.698145692369613
18,21.32882905129084
19,22.08821678504936
20,21.165664752658465
21,22.129774999051488
22,4.698164823011637
23,21.32882905129084
24,22.08821678504936
25,21.165664752658465
26,22.129774999051488
27,4.698164823011637
28,21.328828790426535
29,22.08821534383891
30,21.165664752658465
31,22.129774999051488
32,4.698157555153372
33,21.328828790426535
34,22.08821534383891
35,21.165664752658465
36,22.129774999051488
37,4.698157555153372
38,21.32882836386064
39,22.08821295602436
40,21.165664752658465
41,22.129774999051488
42,4.698145437250674
43,21.32882836386064
44,22.08821295602436
45,21.165664752658465
46,22.129774999051488
47,4.698145437250674
48,21.539110385688396
49,22.091983397919627
50,21.165664752658465
51,22.122300003108872
52,5.947272380465801
53,21.539110385688396
54,22.091983397919627
55,21.165664752658465
56,22.122300003108872
57,5.947272380465801
58,21.539110385688396
59,22.091983397919627
60,21.165664752658465
61,22.122300003108872
62,5.947272380465801
63,21.539110385688396
64,22.091983397919627
65,21.165664752658465
66,22.122300003108872
67,5.947272380465801
68,21.15810546160593
69,18.0
70,21.165664752658465
71,-0.000497829432371378
72,21.15810546160593
73,18.0
74,21.165664752658465
75,-0.000497829432371378
76,21.15810546160593
77,18.0
78,21.165664752658465
79,-0.000497829432371378
80,21.15810546160593
81,18.0
82,21.165664752658465
83,-0.000497829432371378
84,21.26851251496278
85,0.0
219,-307.1483739822473
318,0.0
222,0.0
2,1, 6,15, 1,11, 0.00,60.00,SummerDesignDay
7,23.324499999999997
8,21.989247382888763
9,23.257828431366125
10,21.715346178126037
11,23.326774999051487
12,7.83722288983149
13,21.989247382888763
14,23.257828431366125
15,21.715346178126037
16,23.326774999051487
17,7.83722288983149
18,21.9892478174517
19,23.25783084724107
20,21.715346178126037
21,23.326774999051487
22,7.837235109332148
23,21.9892478174517
24,23.25783084724107
25,21.715346178126037
26,23.326774999051487
27,7.837235109332148
28,21.98924792757773
29,23.257831476848395
30,21.715346178126037
31,23.326774999051487
32,7.837238336862114
33,21.98924792757773
34,23.257831476848395
35,21.715346178126037
36,23.326774999051487
37,7.837238336862114
38,21.989247374582213
39,23.25782838501182
40,21.715346178126037
41,23.326774999051487
42,7.837222654937121
43,21.989247374582213
44,23.25782838501182
45,21.715346178126037
46,23.326774999051487
47,7.837222654937121
48,22.351688406722232
49,23.269280884906525
50,21.715346178126037
51,23.319300003108868
52,9.858810266696237
53,22.351688406722232
54,23.269280884906525
55,21.715346178126037
56,23.319300003108868
57,9.858810266696237
58,22.351688406722232
59,23.269280884906525
60,21.715346178126037
61,23.319300003108868
62,9.858810266696237
63,22.351688406722232
64,23.269280884906525
65,21.715346178126037
66,23.319300003108868
67,9.858810266696237
68,21.705673016527946
69,18.0
70,21.715346178126037
71,-0.0005841455001423364
72,21.705673016527946
73,18.0
74,21.715346178126037
75,-0.0005841455001423364
76,21.705673016527946
77,18.0
78,21.715346178126037
79,-0.0005841455001423364
80,21.705673016527946
81,18.0
82,21.715346178126037
83,-0.0005841455001423364
84,21.897200208746764
85,0.0
219,-1139.6861170023617
318,0.0
222,0.0
2,1, 6,15, 1,12, 0.00,60.00,SummerDesignDay
7,24.227
8,22.78455947544963
9,24.155019755735538
10,22.48808343659744
11,24.229274999051484
12,8.461500601188106
13,22.78455947544963
14,24.155019755735538
15,22.48808343659744
16,24.229274999051484
17,8.461500601188106
18,22.78455962741699
19,24.15502059248293
20,22.48808343659744
21,24.229274999051484
22,8.461504813436129
23,22.78455962741699
24,24.15502059248293
25,22.48808343659744
26,24.229274999051484
27,8.461504813436129
28,22.78456008996252
29,24.15502318850384
30,22.48808343659744
31,24.229274999051484
32,8.461518004922084
33,22.78456008996252
34,24.15502318850384
35,22.48808343659744
36,24.229274999051484
37,8.461518004922084
38,22.784559467573853
39,24.155019711775317
40,22.48808343659744
41,24.229274999051484
42,8.461500378401148
43,22.784559467573853
44,24.155019711775317
45,22.48808343659744
46,24.229274999051484
47,8.461500378401148
48,23.17847043282215
49,24.168079760597216
50,22.48808343659744
51,24.221800003108868
52,10.6261390946723
53,23.17847043282215
54,24.168079760597216
55,22.48808343659744
56,24.221800003108868
57,10.6261390946723
58,23.17847043282215
59,24.168079760597216
60,22.48808343659744
61,24.221800003108868
62,10.6261390946723
63,23.17847043282215
64,24.168079760597216
65,22.48808343659744
66,24.221800003108868
67,10.6261390946723
68,22.47880069650559
69,18.0
70,22.48808343659744
71,-0.0007060178437841325
72,22.47880069650559
73,18.0
74,22.48808343659744
75,-0.0007060178437841325
76,22.47880069650559
77,18.0
78,22.48808343659744
79,-0.0007060178437841325
80,22.47880069650559
81,18.0
82,22.48808343659744
83,-0.0007060178437841325
84,22.688235627078328
85,0.0
219,-2241.990293525157
318,0.0
222,0.0
2,1, 6,15, 1,13, 0.00,60.00,SummerDesignDay
7,24.892000000000003
8,23.548929172801202
9,24.825173114762897
10,23.272719998452107
11,24.894274999051486
12,7.878695775494895
13,23.548929172801202
14,24.825173114762897
15,23.272719998452107
16,24.894274999051486
17,7.878695775494895
18,23.548929165304077
19,24.82517307103214
20,23.272719998452107
21,24.894274999051486
22,7.878695549280305
23,23.548929165304077
24,24.82517307103214
25,23.272719998452107
26,24.894274999051486
27,7.878695549280305
28,23.548929789759786
29,24.825176558440237
30,23.272719998452107
31,24.894274999051486
32,7.87871322775775
33,23.548929789759786
34,24.825176558440237
35,23.272719998452107
36,24.894274999051486
37,7.87871322775775
38,23.548929304077504
39,24.825173857760646
40,23.272719998452107
41,24.894274999051486
42,7.878699566258604
43,23.548929304077504
44,24.825173857760646
45,23.272719998452107
46,24.894274999051486
47,7.878699566258604
48,23.915705063073315
49,24.83685992627327
50,23.272719998452107
51,24.88680000310887
52,9.889746135305971
53,23.915705063073315
54,24.83685992627327
55,23.272719998452107
56,24.88680000310887
57,9.889746135305971
58,23.915705063073315
59,24.83685992627327
60,23.272719998452107
61,24.88680000310887
62,9.889746135305971
63,23.915705063073315
64,24.83685992627327
65,23.272719998452107
66,24.88680000310887
67,9.889746135305971
68,23.263029596905536
69,18.0
70,23.272719998452107
71,-0.0008296401335023504
72,23.263029596905536
73,18.0
74,23.272719998452107