Program Version,EnergyPlus, Version 24.2.0-94a887817b, YMD=2025.06.28 13:51
1,5,Environment Title[],Latitude[deg],Longitude[deg],Time Zone[],Elevation[m]
2,8,Day of Simulation[],Month[],Day of Month[],DST Indicator[1=yes 0=no],Hour[],StartMinute[],EndMinute[],DayType
3,5,Cumulative Day of Simulation[],Month[],Day of Month[],DST Indicator[1=yes 0=no],DayType  ! When Daily Report Variables Requested
4,2,Cumulative Days of Simulation[],Month[]  ! When Monthly Report Variables Requested
5,1,Cumulative Days of Simulation[] ! When Run Period Report Variables Requested
6,1,Calendar Year of Simulation[] ! When Annual Report Variables Requested
7,1,Z1,Zone Air Temperature [C] !Hourly
142,1,Z2,Zone Air Temperature [C] !Hourly
205,1,Z3,Zone Air Temperature [C] !Hourly
268,1,Z4,Zone Air Temperature [C] !Hourly
393,1,Z1 RADIATOR,Baseboard Total Heating Rate [W] !Hourly
396,1,Z2 RADIATOR,Baseboard Total Heating Rate [W] !Hourly
399,1,Z3 RADIATOR,Baseboard Total Heating Rate [W] !Hourly
402,1,Z4 RADIATOR,Baseboard Total Heating Rate [W] !Hourly
403,1,HEAT PUMP,Heat Pump Load Side Heat Transfer Rate [W] !Hourly
417,1,HEAT PUMP,Heat Pump Electricity Rate [W] !Hourly
492,1,SUPPLY PUMP,Pump Electricity Rate [W] !Hourly
493,1,SUPPLY PUMP,Pump Fluid Heat Gain Rate [W] !Hourly
End of Data Dictionary
1,WINTER DESIGN DAY IN (MID) UK,  53.35,  -2.28,   0.00,  69.00
2,1, 1,15, 0, 1, 0.00,60.00,WinterDesignDay
7,20.612209581748964
142,20.612209581748964
205,20.612209581748964
268,20.612209581748964
393,437.12874846260695
396,437.12874846260695
399,437.12874846260695
402,437.12874846260695
403,1131.9460458188541
417,323.413155948244
492,4.994334163947619
493,4.994334163947619
2,1, 1,15, 0, 2, 0.00,60.00,WinterDesignDay
7,20.612209581453612
142,20.612209581453612
205,20.612209581453612
268,20.612209581453612
393,437.12874846648185
396,437.12874846648185
399,437.12874846648185
402,437.12874846648185
403,672.3433645253963
417,192.09810415011324
492,2.9830024948140292
493,2.9830024948140292
2,1, 1,15, 0, 3, 0.00,60.00,WinterDesignDay
7,20.61220958119332
142,20.61220958119332
205,20.61220958119332
268,20.61220958119332
393,437.12874846989706
396,437.12874846989706
399,437.12874846989706
402,437.12874846989706
403,672.3424883668621
417,192.09785381910345
492,2.9830024948140244
493,2.9830024948140244
2,1, 1,15, 0, 4, 0.00,60.00,WinterDesignDay
7,20.612209580963913
142,20.612209580963913
205,20.612209580963913
268,20.612209580963913
393,437.1287484729068
396,437.1287484729068
399,437.1287484729068
402,437.1287484729068
403,672.3424883718405
417,192.09785382052584
492,2.983002494814021
493,2.983002494814021
2,1, 1,15, 0, 5, 0.00,60.00,WinterDesignDay
7,20.612209580761732
142,20.612209580761732
205,20.612209580761732
268,20.612209580761732
393,437.1287484755594
396,437.1287484755594
399,437.1287484755594
402,437.1287484755594
403,672.3416122040392
417,192.09760348686834
492,2.9830024963005193
493,2.9830024963005193
2,1, 1,15, 0, 6, 0.00,60.00,WinterDesignDay
7,20.612209580583553
142,20.612209580583553
205,20.612209580583553
268,20.612209580583553
393,437.1287484778977
396,437.1287484778977
399,437.1287484778977
402,437.1287484778977
403,1131.9469216641983
417,323.4134061897709
492,4.994334163947612
493,4.994334163947612
2,1, 1,15, 0, 7, 0.00,60.00,WinterDesignDay
7,20.61220958042651
142,20.61220958042651
205,20.61220958042651
268,20.61220958042651
393,437.1287484799567
396,437.1287484799567
399,437.1287484799567
402,437.1287484799567
403,902.1433913190126
417,257.755254662575
492,3.9886683293805074
493,3.9886683293805074
2,1, 1,15, 0, 8, 0.00,60.00,WinterDesignDay
7,20.61220958028811
142,20.61220958028811
205,20.61220958028811
268,20.61220958028811
393,437.1287484817726
396,437.1287484817726
399,437.1287484817726
402,437.1287484817726
403,672.342488386237
417,192.09785382463917
492,2.9830024948140093
493,2.9830024948140093
2,1, 1,15, 0, 9, 0.00,60.00,WinterDesignDay
7,20.612209580166123
142,20.612209580166123
205,20.612209580166123
268,20.612209580166123
393,437.1287484833729
396,437.1287484833729
399,437.1287484833729
402,437.1287484833729
403,1131.946045874467
417,323.4131559641334
492,4.9943341639476095
493,4.9943341639476095
2,1, 1,15, 0,10, 0.00,60.00,WinterDesignDay
7,20.612209580058618
142,20.612209580058618
205,20.612209580058618
268,20.612209580058618
393,437.1287484847833
396,437.1287484847833
399,437.1287484847833
402,437.1287484847833
403,1131.946045877643
417,323.4131559650409
492,4.99433416394761
493,4.99433416394761
2,1, 1,15, 0,11, 0.00,60.00,WinterDesignDay
7,20.61220957996387
142,20.61220957996387
205,20.61220957996387
268,20.61220957996387
393,437.1287484860255
396,437.1287484860255
399,437.1287484860255
402,437.1287484860255
403,902.1451432995472
417,257.75575522844207
492,3.988668329380503
493,3.988668329380503
2,1, 1,15, 0,12, 0.00,60.00,WinterDesignDay
7,20.61220957988038
142,20.61220957988038
205,20.61220957988038
268,20.61220957988038
393,437.1287484871215
396,437.1287484871215
399,437.1287484871215
402,437.1287484871215
403,902.1433909668392
417,257.7552545619541
492,3.988668330867003
493,3.988668330867003
2,1, 1,15, 0,13, 0.00,60.00,WinterDesignDay
7,20.612209579806787
142,20.612209579806787
205,20.612209579806787
268,20.612209579806787
393,437.1287484880874
396,437.1287484880874
399,437.1287484880874
402,437.1287484880874
403,672.3424883953896
417,192.0978538272542
492,2.9830024948140017
493,2.9830024948140017
2,1, 1,15, 0,14, 0.00,60.00,WinterDesignDay
7,20.612209579741933
142,20.612209579741933
205,20.612209579741933
268,20.612209579741933
393,437.1287484889383
396,437.1287484889383
399,437.1287484889383
402,437.1287484889383
403,1131.9460458881385
417,323.4131559680396
492,4.994334163947608
493,4.994334163947608
2,1, 1,15, 0,15, 0.00,60.00,WinterDesignDay
7,20.612209579684777
142,20.612209579684777
205,20.612209579684777
268,20.612209579684777
393,437.1287484896877
396,437.1287484896877
399,437.1287484896877
402,437.1287484896877
403,902.1451429583121
417,257.75575513094634
492,3.9886683278952146
493,3.9886683278952146
2,1, 1,15, 0,16, 0.00,60.00,WinterDesignDay
7,20.61220957963441
142,20.61220957963441
205,20.61220957963441
268,20.61220957963441
393,437.12874849034966
396,437.12874849034966
399,437.12874849034966
402,437.12874849034966
403,902.1442671544094
417,257.75550490125977
492,3.9886683278952137
493,3.9886683278952137
2,1, 1,15, 0,17, 0.00,60.00,WinterDesignDay
7,20.61220957959001
142,20.61220957959001
205,20.61220957959001
268,20.61220957959001
393,437.1287484909309
396,437.1287484909309
399,437.1287484909309
402,437.1287484909309
403,902.1433913415474
417,257.75525466901354
492,3.9886683293804976
493,3.9886683293804976
2,1, 1,15, 0,18, 0.00,60.00,WinterDesignDay
7,20.612209579550886
142,20.612209579550886
205,20.612209579550886
268,20.612209579550886
393,437.12874849144566
396,437.12874849144566
399,437.12874849144566
402,437.12874849144566
403,902.1442671484019
417,257.75550489954344
492,3.9886683293804976
493,3.9886683293804976
2,1, 1,15, 0,19, 0.00,60.00,WinterDesignDay
7,20.6122095795164
142,20.6122095795164
205,20.6122095795164
268,20.6122095795164
393,437.12874849189683
396,437.12874849189683
399,437.12874849189683
402,437.12874849189683
403,902.1451429623804
417,257.7557551321087
492,3.988668327895213
493,3.988668327895213
2,1, 1,15, 0,20, 0.00,60.00,WinterDesignDay
7,20.612209579486006
142,20.612209579486006
205,20.612209579486006
268,20.612209579486006
393,437.1287484922947
396,437.1287484922947
399,437.1287484922947
402,437.1287484922947
403,672.3424884022272
417,192.09785382920776
492,2.983002494813996
493,2.983002494813996
2,1, 1,15, 0,21, 0.00,60.00,WinterDesignDay
7,20.612209579459233
142,20.612209579459233
205,20.612209579459233
268,20.612209579459233
393,437.128748492648
396,437.128748492648
399,437.128748492648
402,437.128748492648
403,902.1442671503064
417,257.75550490008754
492,3.988668329380497
493,3.988668329380497
2,1, 1,15, 0,22, 0.00,60.00,WinterDesignDay
7,20.612209579435625
142,20.612209579435625
205,20.612209579435625
268,20.612209579435625
393,437.12874849295764
396,437.12874849295764
399,437.12874849295764
402,437.12874849295764
403,902.1442671598684
417,257.75550490281955
492,3.988668327895211
493,3.988668327895211
2,1, 1,15, 0,23, 0.00,60.00,WinterDesignDay
7,20.612209579414824
142,20.612209579414824
205,20.612209579414824
268,20.612209579414824
393,437.1287484932302
396,437.1287484932302
399,437.1287484932302
402,437.1287484932302
403,672.3424887622077
417,192.0978539320594
492,2.983002494813386
493,2.983002494813386
2,1, 1,15, 0,24, 0.00,60.00,WinterDesignDay
7,20.612209579396495
142,20.612209579396495
205,20.612209579396495
268,20.612209579396495
393,437.12874849347145
396,437.12874849347145
399,437.12874849347145
402,437.12874849347145
403,672.3424884041269
417,192.09785382975056
492,2.9830024948139937
493,2.9830024948139937
End of Data
 Number of Records Written=         288
