Program Version,EnergyPlus, Version 24.2.0-94a887817b, YMD=2026.01.14 16:15
1,5,Environment Title[],Latitude[deg],Longitude[deg],Time Zone[],Elevation[m]
2,8,Day of Simulation[],Month[],Day of Month[],DST Indicator[1=yes 0=no],Hour[],StartMinute[],EndMinute[],DayType
3,5,Cumulative Day of Simulation[],Month[],Day of Month[],DST Indicator[1=yes 0=no],DayType  ! When Daily Report Variables Requested
4,2,Cumulative Days of Simulation[],Month[]  ! When Monthly Report Variables Requested
5,1,Cumulative Days of Simulation[] ! When Run Period Report Variables Requested
6,1,Calendar Year of Simulation[] ! When Annual Report Variables Requested
7,1,Environment,Site Outdoor Air Drybulb Temperature [C] !Hourly
8,1,Z1,Zone Operative Temperature [C] !Hourly
9,1,Z2,Zone Operative Temperature [C] !Hourly
10,1,Z3,Zone Operative Temperature [C] !Hourly
11,1,Z4,Zone Operative Temperature [C] !Hourly
12,1,Z1,Zone Air Temperature [C] !Hourly
147,1,Z2,Zone Air Temperature [C] !Hourly
210,1,Z3,Zone Air Temperature [C] !Hourly
273,1,Z4,Zone Air Temperature [C] !Hourly
336,1,HOT WATER LOOP,Plant Supply Side Outlet Temperature [C] !Hourly
399,1,Z1 RADIATOR,Baseboard Total Heating Rate [W] !Hourly
400,1,Z1 RADIATOR,Baseboard Hot Water Mass Flow Rate [kg/s] !Hourly
403,1,Z2 RADIATOR,Baseboard Total Heating Rate [W] !Hourly
404,1,Z2 RADIATOR,Baseboard Hot Water Mass Flow Rate [kg/s] !Hourly
407,1,Z3 RADIATOR,Baseboard Total Heating Rate [W] !Hourly
408,1,Z3 RADIATOR,Baseboard Hot Water Mass Flow Rate [kg/s] !Hourly
411,1,Z4 RADIATOR,Baseboard Total Heating Rate [W] !Hourly
412,1,Z4 RADIATOR,Baseboard Hot Water Mass Flow Rate [kg/s] !Hourly
413,1,HEAT PUMP,Heat Pump Load Side Heat Transfer Rate [W] !Hourly
427,1,HEAT PUMP,Heat Pump Load Side Inlet Temperature [C] !Hourly
428,1,HEAT PUMP,Heat Pump Electricity Rate [W] !Hourly
503,1,SUPPLY PUMP,Pump Electricity Rate [W] !Hourly
504,1,SUPPLY PUMP,Pump Fluid Heat Gain Rate [W] !Hourly
505,1,SUPPLY PUMP,Pump Mass Flow Rate [kg/s] !Hourly
533,1,Baseboard Total Heating Rate All Zones,PythonPlugin:OutputVariable [W] !Hourly
End of Data Dictionary
1,WINTER DESIGN DAY IN (MID) UK,  53.35,  -2.28,   0.00,  69.00
2,1, 1,15, 0, 1, 0.00,60.00,WinterDesignDay
7,-3.0
8,19.131539344112348
9,19.131539344112348
10,18.000040028550966
11,18.000040028550966
12,20.098039926910023
147,20.098039926910023
210,18.641077954845596
273,18.641077954845596
336,50.03
399,466.6322265347051
400,0.029496
403,466.6322265347051
404,0.029496
407,376.678779527364
408,0.0055449023437500015
411,376.678779527364
412,0.0055449023437500015
413,1684.398715878581
427,46.930230079958484
428,709.6121073726058
503,1.9707886217036434
504,1.9707886217036434
505,0.12998674
533,1686.622012124138
2,1, 1,15, 0, 2, 0.00,60.00,WinterDesignDay
7,-3.0
8,19.13153931595364
9,19.13153931595364
10,18.000039998888113
11,18.000039998888113
12,20.0980399009895
147,20.0980399009895
210,18.641077927114218
273,18.641077927114218
336,50.03
399,466.6322269458769
400,0.029496
403,466.6322269458769
404,0.029496
407,376.6787798659534
408,0.0055449023437500015
411,376.6787798659534
412,0.0055449023437500015
413,1684.3987173812359
427,46.93023007719317
428,709.612108005652
503,1.9707886217012196
504,1.9707886217012196
505,0.12998674
533,1686.6220136236602
2,1, 1,15, 0, 3, 0.00,60.00,WinterDesignDay
7,-3.0
8,19.131539289683666
9,19.131539289683666
10,18.00003997120429
11,18.00003997120429
12,20.098039876807807
147,20.098039876807807
210,18.6410779012328
273,18.6410779012328
336,50.03
399,466.63222732946514
400,0.029496
403,466.63222732946514
404,0.029496
407,376.6787801819565
408,0.0055449023437500015
411,376.6787801819565
412,0.0055449023437500015
413,1684.398718783345
427,46.93023007461289
428,709.6121085963397
503,1.9707886216989579
504,1.9707886216989579
505,0.12998674
533,1686.6220150228432
2,1, 1,15, 0, 4, 0.00,60.00,WinterDesignDay
7,-3.0
8,19.131539265175213
9,19.131539265175213
10,18.000039945367952
11,18.000039945367952
12,20.098039854247833
147,20.098039854247833
210,18.64107787707837
273,18.64107787707837
336,50.03
399,466.63222768732567
400,0.029496
403,466.63222768732567
404,0.029496
407,376.67878047687503
408,0.0055449023437500015
411,376.67878047687503
412,0.0055449023437500015
413,1684.3987200916295
427,46.930230072205276
428,709.6121091475005
503,1.9707886216968475
504,1.9707886216968475
505,0.12998674
533,1686.6220163284013
2,1, 1,15, 0, 5, 0.00,60.00,WinterDesignDay
7,-3.0
8,19.13153924230938
9,19.13153924230938
10,18.00003992125618
11,18.00003992125618
12,20.0980398332001
147,20.0980398332001
210,18.641077854536064
273,18.641077854536064
336,50.03
399,466.6322280211955
400,0.029496
403,466.6322280211955
404,0.029496
407,376.67878075211087
408,0.0055449023437500015
411,376.67878075211087
412,0.0055449023437500015
413,1684.398721312384
427,46.930230069958746
428,709.6121096617862
503,1.970788621694879
504,1.970788621694879
505,0.12998674
533,1686.6220175466128
2,1, 1,15, 0, 6, 0.00,60.00,WinterDesignDay
7,-3.0
8,19.131539220975807
9,19.131539220975807
10,18.00003989875424
11,18.00003989875424
12,20.098039813562945
147,20.098039813562945
210,18.64107783349865
273,18.64107783349865
336,50.03
399,466.6322283326894
400,0.029496
403,466.6322283326894
404,0.029496
407,376.6787810089739
408,0.0055449023437500015
411,376.6787810089739
412,0.0055449023437500015
413,1684.3987224514738
427,46.930230067862496
428,709.6121101416677
503,1.9707886216930417
504,1.9707886216930417
505,0.12998674
533,1686.6220186833266
2,1, 1,15, 0, 7, 0.00,60.00,WinterDesignDay
7,-3.0
8,19.13153920107166
9,19.13153920107166
10,18.00003987775498
11,18.00003987775498
12,20.098039795241665
147,20.098039795241665
210,18.641077813865984
273,18.641077813865984
336,50.03
399,466.63222862330974
400,0.029496
403,466.63222862330974
404,0.029496
407,376.6787812486857
408,0.0055449023437500015
411,376.6787812486857
412,0.0055449023437500015
413,1684.3987235143538
427,46.9302300659065
428,709.6121105894433
503,1.9707886216913268
504,1.9707886216913268
505,0.12998674
533,1686.622019743991
2,1, 1,15, 0, 8, 0.00,60.00,WinterDesignDay
7,-3.0
8,19.131539182501044
9,19.131539182501044
10,18.000039858158107
11,18.000039858158107
12,20.098039778147967
147,20.098039778147967
210,18.641077795544355
273,18.641077795544355
336,50.03
399,466.6322288944567
400,0.029496
403,466.6322288944567
404,0.029496
407,376.67878147239037
408,0.0055449023437500015
411,376.67878147239037
412,0.0055449023437500015
413,1684.3987245061228
427,46.93023006408137
428,709.6121110072608
503,1.9707886216897275
504,1.9707886216897275
505,0.12998674
533,1686.6220207336942
2,1, 1,15, 0, 9, 0.00,60.00,WinterDesignDay
7,-3.0
8,19.131539165174267
9,19.131539165174267
10,18.000039839870084
11,18.000039839870084
12,20.098039762199292
147,20.098039762199292
210,18.641077778446324
273,18.641077778446324
336,50.03
399,466.63222914744017
400,0.029496
403,466.63222914744017
404,0.029496
407,376.67878168115544
408,0.0055449023437500015
411,376.67878168115544
412,0.0055449023437500015
413,1684.3987254315523
427,46.930230062378314
428,709.6121113971304
503,1.9707886216882344
504,1.9707886216882344
505,0.12998674
533,1686.6220216571912
2,1, 1,15, 0,10, 0.00,60.00,WinterDesignDay
7,-3.0
8,19.131539149007935
9,19.131539149007935
10,18.000039822803814
11,18.000039822803814
12,20.098039747318825
147,20.098039747318825
210,18.641077762490454
273,18.641077762490454
336,50.03
399,466.6322293834784
400,0.029496
403,466.6322293834784
404,0.029496
407,376.6787818759758
408,0.0055449023437500015
411,376.6787818759758
412,0.0055449023437500015
413,1684.3987262950668
427,46.9302300607892
428,709.6121117609164
503,1.9707886216868418
504,1.9707886216868418
505,0.12998674
533,1686.6220225189086
2,1, 1,15, 0,11, 0.00,60.00,WinterDesignDay
7,-3.0
8,19.13153913392415
9,19.13153913392415
10,18.000039806877908
11,18.000039806877908
12,20.098039733434884
147,20.098039733434884
210,18.64107774760066
273,18.64107774760066
336,50.03
399,466.63222960370905
400,0.029496
403,466.63222960370905
404,0.029496
407,376.6787820577799
408,0.0055449023437500015
411,376.6787820577799
412,0.0055449023437500015
413,1684.3987271008152
427,46.930230059306396
428,709.6121121003662
503,1.9707886216855424
504,1.9707886216855424
505,0.12998674
533,1686.6220233229778
2,1, 1,15, 0,12, 0.00,60.00,WinterDesignDay
7,-3.0
8,19.131539119850057
9,19.131539119850057
10,18.000039792016274
11,18.000039792016274
12,20.098039720480386
147,20.098039720480386
210,18.64107773370586
273,18.64107773370586
336,50.03
399,466.6322298091952
400,0.029496
403,466.6322298091952
404,0.029496
407,376.67878222743565
408,0.0055449023437500015
411,376.67878222743565
412,0.0055449023437500015
413,1684.3987278526674
427,46.93023005792278
428,709.6121124171102
503,1.9707886216843293
504,1.9707886216843293
505,0.12998674
533,1686.6220240732619
2,1, 1,15, 0,13, 0.00,60.00,WinterDesignDay
7,-3.0
8,19.131539106718066
9,19.131539106718066
10,18.000039778147784
11,18.000039778147784
12,20.09803970839308
147,20.09803970839308
210,18.641077720739567
273,18.641077720739567
336,50.03
399,466.6322300009263
400,0.029496
403,466.6322300009263
404,0.029496
407,376.67878238575406
408,0.0055449023437500015
411,376.67878238575406
412,0.0055449023437500015
413,1684.3987285542282
427,46.93023005663171
428,709.6121127126673
503,1.970788621683198
504,1.970788621683198
505,0.12998674
533,1686.6220247733606
2,1, 1,15, 0,14, 0.00,60.00,WinterDesignDay
7,-3.0
8,19.131539094465236
9,19.131539094465236
10,18.000039765205777
11,18.000039765205777
12,20.09803969711502
147,20.09803969711502
210,18.641077708639507
273,18.641077708639507
336,50.03
399,466.63223017982125
400,0.029496
403,466.63223017982125
404,0.029496
407,376.6787825334949
408,0.0055449023437500015
411,376.6787825334949
412,0.0055449023437500015
413,1684.3987292088636
427,46.930230055426996
428,709.6121129884556
503,1.970788621682142
504,1.970788621682142
505,0.12998674
533,1686.6220254266323
2,1, 1,15, 0,15, 0.00,60.00,WinterDesignDay
7,-3.0
8,19.13153908303253
9,19.13153908303253
10,18.000039753128526
11,18.000039753128526
12,20.098039686591886
147,20.098039686591886
210,18.641077697347892
273,18.641077697347892
336,50.03
399,466.6322303467402
400,0.029496
403,466.6322303467402
404,0.029496
407,376.6787826713655
408,0.0055449023437500015
411,376.6787826713655
412,0.0055449023437500015
413,1684.398729819715
427,46.930230054302854
428,709.6121132457981
503,1.9707886216811565
504,1.9707886216811565
505,0.12998674
533,1686.6220260362115
2,1, 1,15, 0,16, 0.00,60.00,WinterDesignDay
7,-3.0
8,19.131539072364912
9,19.131539072364912
10,18.00003974185851
11,18.00003974185851
12,20.098039676773006
147,20.098039676773006
210,18.641077686810956
273,18.641077686810956
336,50.03
399,466.63223050248837
400,0.029496
403,466.63223050248837
404,0.029496
407,376.6787828000222
408,0.0055449023437500015
411,376.6787828000222
412,0.0055449023437500015
413,1684.3987303897134
427,46.930230053253894
428,709.6121134859299
503,1.9707886216802373
504,1.9707886216802373
505,0.12998674
533,1686.6220266050211
2,1, 1,15, 0,17, 0.00,60.00,WinterDesignDay
7,-3.0
8,19.131539062411253
9,19.131539062411253
10,18.000039731341698
11,18.000039731341698
12,20.09803966761129
147,20.09803966761129
210,18.641077676978213
273,18.641077676978213
336,50.03
399,466.63223064781255
400,0.029496
403,466.63223064781255
404,0.029496
407,376.67878292008
408,0.0055449023437500015
411,376.67878292008
412,0.0055449023437500015
413,1684.3987309215856
427,46.93023005227511
428,709.6121137099999
503,1.9707886216793795
504,1.9707886216793795
505,0.12998674
533,1686.6220271357852
2,1, 1,15, 0,18, 0.00,60.00,WinterDesignDay
7,-3.0
8,19.13153905312376
9,19.13153905312376
10,18.00003972152779
11,18.00003972152779
12,20.098039659062753
147,20.098039659062753
210,18.641077667802634
273,18.641077667802634
336,50.03
399,466.63223078341036
400,0.029496
403,466.63223078341036
404,0.029496
407,376.67878303211467
408,0.0055449023437500015
411,376.67878303211467
412,0.0055449023437500015
413,1684.3987314178873
427,46.93023005136176
428,709.6121139190844
503,1.970788621678579
504,1.970788621678579
505,0.12998674
533,1686.62202763105
2,1, 1,15, 0,19, 0.00,60.00,WinterDesignDay
7,-3.0
8,19.131539044457767
9,19.131539044457767
10,18.000039712370096
11,18.000039712370096
12,20.09803965108629
147,20.09803965108629
210,18.641077659240537
273,18.641077659240537
336,50.03
399,466.6322309099332
400,0.029496
403,466.6322309099332
404,0.029496
407,376.67878313665886
408,0.0055449023437500015
411,376.67878313665886
412,0.0055449023437500015
413,1684.3987318809839
427,46.930230050509536
428,709.6121141141799
503,1.9707886216778319
504,1.9707886216778319
505,0.12998674
533,1686.6220280931843
2,1, 1,15, 0,20, 0.00,60.00,WinterDesignDay
7,-3.0
8,19.13153903637155
9,19.13153903637155
10,18.00003970382476
11,18.00003970382476
12,20.098039643643496
147,20.098039643643496
210,18.641077651250953
273,18.641077651250953
336,50.03
399,466.6322310279911
400,0.029496
403,466.6322310279911
404,0.029496
407,376.67878323421303
408,0.0055449023437500015
411,376.67878323421303
412,0.0055449023437500015
413,1684.3987323131119
427,46.9302300497143
428,709.6121142962292
503,1.970788621677135
504,1.970788621677135
505,0.12998674
533,1686.622028524408
2,1, 1,15, 0,21, 0.00,60.00,WinterDesignDay
7,-3.0
8,19.131539028826428
9,19.131539028826428
10,18.000039695850848
11,18.000039695850848
12,20.09803963669873
147,20.09803963669873
210,18.641077643795626
273,18.641077643795626
336,50.03
399,466.63223113814945
400,0.029496
403,466.63223113814945
404,0.029496
407,376.67878332524367
408,0.0055449023437500015
411,376.67878332524367
412,0.0055449023437500015
413,1684.3987327163284
427,46.93023004897226
428,709.6121144660982
503,1.9707886216764847
504,1.9707886216764847
505,0.12998674
533,1686.6220289267862
2,1, 1,15, 0,22, 0.00,60.00,WinterDesignDay
7,-3.0
8,19.13153902178648
9,19.13153902178648
10,18.000039688410126
11,18.000039688410126
12,20.098039630218917
147,20.098039630218917
210,18.641077636838798
273,18.641077636838798
336,50.03
399,466.6322312409339
400,0.029496
403,466.6322312409339
404,0.029496
407,376.67878341018763
408,0.0055449023437500015
411,376.67878341018763
412,0.0055449023437500015
413,1684.3987330925725
427,46.930230048279874
428,709.6121146246043
503,1.9707886216758776
504,1.9707886216758776
505,0.12998674
533,1686.622029302243
2,1, 1,15, 0,23, 0.00,60.00,WinterDesignDay
7,-3.0
8,19.13153901521762
9,19.13153901521762
10,18.000039681467054
11,18.000039681467054
12,20.098039624172753
147,20.098039624172753
210,18.64107763034724
273,18.64107763034724
336,50.03
399,466.63223133683783
400,0.029496
403,466.63223133683783
404,0.029496
407,376.67878348945067
408,0.0055449023437500015
411,376.67878348945067
412,0.0055449023437500015
413,1684.3987334436317
427,46.93023004763383
428,709.6121147725003
503,1.9707886216753114
504,1.9707886216753114
505,0.12998674
533,1686.622029652577
2,1, 1,15, 0,24, 0.00,60.00,WinterDesignDay
7,-3.0
8,19.131539009088172
9,19.131539009088172
10,18.000039674988194
11,18.000039674988194
12,20.098039618531057
147,20.098039618531057
210,18.64107762428972
273,18.64107762428972
336,50.03
399,466.6322314263265
400,0.029496
403,466.6322314263265
404,0.029496
407,376.67878356341373
408,0.0055449023437500015
411,376.67878356341373
412,0.0055449023437500015
413,1684.3987337712208
427,46.930230047030975
428,709.6121149105086
503,1.970788621674783
504,1.970788621674783
505,0.12998674
533,1686.6220299794804
End of Data
 Number of Records Written=         600
