Program Version,EnergyPlus, Version 24.2.0-94a887817b, YMD=2025.06.30 12:52
1,5,Environment Title[],Latitude[deg],Longitude[deg],Time Zone[],Elevation[m]
2,8,Day of Simulation[],Month[],Day of Month[],DST Indicator[1=yes 0=no],Hour[],StartMinute[],EndMinute[],DayType
3,5,Cumulative Day of Simulation[],Month[],Day of Month[],DST Indicator[1=yes 0=no],DayType  ! When Daily Report Variables Requested
4,2,Cumulative Days of Simulation[],Month[]  ! When Monthly Report Variables Requested
5,1,Cumulative Days of Simulation[] ! When Run Period Report Variables Requested
6,1,Calendar Year of Simulation[] ! When Annual Report Variables Requested
7,1,Z1,Zone Air Temperature [C] !Hourly
142,1,Z2,Zone Air Temperature [C] !Hourly
205,1,Z3,Zone Air Temperature [C] !Hourly
268,1,Z4,Zone Air Temperature [C] !Hourly
393,1,Z1 RADIATOR,Baseboard Total Heating Rate [W] !Hourly
396,1,Z2 RADIATOR,Baseboard Total Heating Rate [W] !Hourly
399,1,Z3 RADIATOR,Baseboard Total Heating Rate [W] !Hourly
402,1,Z4 RADIATOR,Baseboard Total Heating Rate [W] !Hourly
403,1,HEAT PUMP,Heat Pump Load Side Heat Transfer Rate [W] !Hourly
417,1,HEAT PUMP,Heat Pump Electricity Rate [W] !Hourly
492,1,SUPPLY PUMP,Pump Electricity Rate [W] !Hourly
493,1,SUPPLY PUMP,Pump Fluid Heat Gain Rate [W] !Hourly
End of Data Dictionary
1,WINTER DESIGN DAY IN (MID) UK,  53.35,  -2.28,   0.00,  69.00
2,1, 1,15, 0, 1, 0.00,60.00,WinterDesignDay
7,21.001353989629255
142,21.001353989629255
205,21.001353989629255
268,21.001353989629255
393,444.34996158232053
396,444.34996158232053
399,444.34996158232053
402,444.34996158232053
403,1771.8491530917195
417,506.24261516906273
492,5.345892460985355
493,5.345892460985355
2,1, 1,15, 0, 2, 0.00,60.00,WinterDesignDay
7,21.00142040090948
142,21.00142040090948
205,21.00142040090948
268,21.00142040090948
393,444.34906045146795
396,444.34906045146795
399,444.34906045146795
402,444.34906045146795
403,1771.8455422074271
417,506.24158348783635
492,5.34589246710952
493,5.34589246710952
2,1, 1,15, 0, 3, 0.00,60.00,WinterDesignDay
7,21.0014780641377
142,21.0014780641377
205,21.0014780641377
268,21.0014780641377
393,444.3482804688326
396,444.3482804688326
399,444.3482804688326
402,444.3482804688326
403,1771.8424173785988
417,506.24069067959965
492,5.3458924724093215
493,5.3458924724093215
2,1, 1,15, 0, 4, 0.00,60.00,WinterDesignDay
7,21.001528500788094
142,21.001528500788094
205,21.001528500788094
268,21.001528500788094
393,444.3475991110008
396,444.3475991110008
399,444.3475991110008
402,444.3475991110008
403,1771.8396878810543
417,506.2399108231583
492,5.34589247703863
493,5.34589247703863
2,1, 1,15, 0, 5, 0.00,60.00,WinterDesignDay
7,21.000501387282885
142,21.000501387282885
205,21.000501387282885
268,21.000501387282885
393,444.1725449132717
396,444.1725449132717
399,444.1725449132717
402,444.1725449132717
403,1771.1963800824242
417,506.05610859497835
492,5.285110637990192
493,5.285110637990192
2,1, 1,15, 0, 6, 0.00,60.00,WinterDesignDay
7,21.000831316153636
142,21.000831316153636
205,21.000831316153636
268,21.000831316153636
393,444.3598992178527
396,444.3598992178527
399,444.3598992178527
402,444.3598992178527
403,1771.8900110513832
417,506.25428887182375
492,5.3458923916846075
493,5.3458923916846075
2,1, 1,15, 0, 7, 0.00,60.00,WinterDesignDay
7,21.001046876550955
142,21.001046876550955
205,21.001046876550955
268,21.001046876550955
393,444.3543636365142
396,444.3543636365142
399,444.3543636365142
402,444.3543636365142
403,1771.866839272559
417,506.2476683635883
492,5.345892430989072
493,5.345892430989072
2,1, 1,15, 0, 8, 0.00,60.00,WinterDesignDay
7,21.0011801218391
142,21.0011801218391
205,21.0011801218391
268,21.0011801218391
393,444.35236832527505
396,444.35236832527505
399,444.35236832527505
402,444.35236832527505
403,1771.8588086264915
417,506.2453738932833
492,5.345892444609284
493,5.345892444609284
2,1, 1,15, 0, 9, 0.00,60.00,WinterDesignDay
7,21.001276074440895
142,21.001276074440895
205,21.001276074440895
268,21.001276074440895
393,444.35102742310505
396,444.35102742310505
399,444.35102742310505
402,444.35102742310505
403,1771.8534261476834
417,506.2438360421953
492,5.345892453738125
493,5.345892453738125
2,1, 1,15, 0,10, 0.00,60.00,WinterDesignDay
7,21.001353989629276
142,21.001353989629276
205,21.001353989629276
268,21.001353989629276
393,444.34996158231985
396,444.34996158231985
399,444.34996158231985
402,444.34996158231985
403,1771.8491530917167
417,506.24261516906193
492,5.345892460985355
493,5.345892460985355
2,1, 1,15, 0,11, 0.00,60.00,WinterDesignDay
7,21.001420400909502
142,21.001420400909502
205,21.001420400909502
268,21.001420400909502
393,444.3490604514667
396,444.3490604514667
399,444.3490604514667
402,444.3490604514667
403,1771.8455422074117
417,506.24158348783186
492,5.34589246710952
493,5.34589246710952
2,1, 1,15, 0,12, 0.00,60.00,WinterDesignDay
7,21.00147806413772
142,21.00147806413772
205,21.00147806413772
268,21.00147806413772
393,444.3482804688326
396,444.3482804688326
399,444.3482804688326
402,444.3482804688326
403,1771.8424173785988
417,506.24069067959965
492,5.3458924724093215
493,5.3458924724093215
2,1, 1,15, 0,13, 0.00,60.00,WinterDesignDay
7,21.001528500788112
142,21.001528500788112
205,21.001528500788112
268,21.001528500788112
393,444.34759911100014
396,444.34759911100014
399,444.34759911100014
402,444.34759911100014
403,1771.8396878810543
417,506.2399108231583
492,5.34589247703863
493,5.34589247703863
2,1, 1,15, 0,14, 0.00,60.00,WinterDesignDay
7,21.000501387282895
142,21.000501387282895
205,21.000501387282895
268,21.000501387282895
393,444.17254491327105
396,444.17254491327105
399,444.17254491327105
402,444.17254491327105
403,1771.1963800824242
417,506.05610859497835
492,5.285110637990192
493,5.285110637990192
2,1, 1,15, 0,15, 0.00,60.00,WinterDesignDay
7,21.000831316153644
142,21.000831316153644
205,21.000831316153644
268,21.000831316153644
393,444.3598992178521
396,444.3598992178521
399,444.3598992178521
402,444.3598992178521
403,1771.8900110513805
417,506.254288871823
492,5.3458923916846075
493,5.3458923916846075
2,1, 1,15, 0,16, 0.00,60.00,WinterDesignDay
7,21.001046876550966
142,21.001046876550966
205,21.001046876550966
268,21.001046876550966
393,444.3543636365142
396,444.3543636365142
399,444.3543636365142
402,444.3543636365142
403,1771.866839272559
417,506.2476683635883
492,5.345892430989072
493,5.345892430989072
2,1, 1,15, 0,17, 0.00,60.00,WinterDesignDay
7,21.001180121839106
142,21.001180121839106
205,21.001180121839106
268,21.001180121839106
393,444.35236832527505
396,444.35236832527505
399,444.35236832527505
402,444.35236832527505
403,1771.8588086264915
417,506.2453738932833
492,5.345892444609284
493,5.345892444609284
2,1, 1,15, 0,18, 0.00,60.00,WinterDesignDay
7,21.001276074440902
142,21.001276074440902
205,21.001276074440902
268,21.001276074440902
393,444.35102742310505
396,444.35102742310505
399,444.35102742310505
402,444.35102742310505
403,1771.8534261476834
417,506.2438360421953
492,5.345892453738125
493,5.345892453738125
2,1, 1,15, 0,19, 0.00,60.00,WinterDesignDay
7,21.001353989629276
142,21.001353989629276
205,21.001353989629276
268,21.001353989629276
393,444.34996158231985
396,444.34996158231985
399,444.34996158231985
402,444.34996158231985
403,1771.8491530917167
417,506.24261516906193
492,5.345892460985355
493,5.345892460985355
2,1, 1,15, 0,20, 0.00,60.00,WinterDesignDay
7,21.001420400909502
142,21.001420400909502
205,21.001420400909502
268,21.001420400909502
393,444.3490604514667
396,444.3490604514667
399,444.3490604514667
402,444.3490604514667
403,1771.8455422074117
417,506.24158348783186
492,5.34589246710952
493,5.34589246710952
2,1, 1,15, 0,21, 0.00,60.00,WinterDesignDay
7,21.00147806413772
142,21.00147806413772
205,21.00147806413772
268,21.00147806413772
393,444.3482804688326
396,444.3482804688326
399,444.3482804688326
402,444.3482804688326
403,1771.8424173785988
417,506.24069067959965
492,5.3458924724093215
493,5.3458924724093215
2,1, 1,15, 0,22, 0.00,60.00,WinterDesignDay
7,21.001528500788112
142,21.001528500788112
205,21.001528500788112
268,21.001528500788112
393,444.34759911100014
396,444.34759911100014
399,444.34759911100014
402,444.34759911100014
403,1771.8396878810543
417,506.2399108231583
492,5.34589247703863
493,5.34589247703863
2,1, 1,15, 0,23, 0.00,60.00,WinterDesignDay
7,21.000501387282895
142,21.000501387282895
205,21.000501387282895
268,21.000501387282895
393,444.17254491327105
396,444.17254491327105
399,444.17254491327105
402,444.17254491327105
403,1771.1963800824242
417,506.05610859497835
492,5.285110637990192
493,5.285110637990192
2,1, 1,15, 0,24, 0.00,60.00,WinterDesignDay
7,21.000831316153644
142,21.000831316153644
205,21.000831316153644
268,21.000831316153644
393,444.3598992178521
396,444.3598992178521
399,444.3598992178521
402,444.3598992178521
403,1771.8900110513805
417,506.254288871823
492,5.3458923916846075
493,5.3458923916846075
End of Data
 Number of Records Written=         288
