Program Version,EnergyPlus, Version 24.2.0-94a887817b, YMD=2025.12.10 13:32
1,5,Environment Title[],Latitude[deg],Longitude[deg],Time Zone[],Elevation[m]
2,8,Day of Simulation[],Month[],Day of Month[],DST Indicator[1=yes 0=no],Hour[],StartMinute[],EndMinute[],DayType
3,5,Cumulative Day of Simulation[],Month[],Day of Month[],DST Indicator[1=yes 0=no],DayType  ! When Daily Report Variables Requested
4,2,Cumulative Days of Simulation[],Month[]  ! When Monthly Report Variables Requested
5,1,Cumulative Days of Simulation[] ! When Run Period Report Variables Requested
6,1,Calendar Year of Simulation[] ! When Annual Report Variables Requested
7,1,Environment,Site Outdoor Air Drybulb Temperature [C] !Hourly
8,1,Z1,Zone Air Temperature [C] !Hourly
143,1,Z2,Zone Air Temperature [C] !Hourly
206,1,Z3,Zone Air Temperature [C] !Hourly
269,1,Z4,Zone Air Temperature [C] !Hourly
332,1,HOT WATER LOOP,Plant Supply Side Outlet Temperature [C] !Hourly
395,1,Z1 RADIATOR,Baseboard Total Heating Rate [W] !Hourly
396,1,Z1 RADIATOR,Baseboard Hot Water Mass Flow Rate [kg/s] !Hourly
399,1,Z2 RADIATOR,Baseboard Total Heating Rate [W] !Hourly
400,1,Z2 RADIATOR,Baseboard Hot Water Mass Flow Rate [kg/s] !Hourly
403,1,Z3 RADIATOR,Baseboard Total Heating Rate [W] !Hourly
404,1,Z3 RADIATOR,Baseboard Hot Water Mass Flow Rate [kg/s] !Hourly
407,1,Z4 RADIATOR,Baseboard Total Heating Rate [W] !Hourly
408,1,Z4 RADIATOR,Baseboard Hot Water Mass Flow Rate [kg/s] !Hourly
409,1,HEAT PUMP,Heat Pump Load Side Heat Transfer Rate [W] !Hourly
423,1,HEAT PUMP,Heat Pump Load Side Inlet Temperature [C] !Hourly
424,1,HEAT PUMP,Heat Pump Electricity Rate [W] !Hourly
499,1,SUPPLY PUMP,Pump Electricity Rate [W] !Hourly
500,1,SUPPLY PUMP,Pump Fluid Heat Gain Rate [W] !Hourly
501,1,SUPPLY PUMP,Pump Mass Flow Rate [kg/s] !Hourly
529,1,Baseboard Total Heating Rate All Zones,PythonPlugin:OutputVariable [W] !Hourly
End of Data Dictionary
1,WINTER DESIGN DAY IN (MID) UK,  53.35,  -2.28,   0.00,  69.00
2,1, 1,15, 0, 1, 0.00,60.00,WinterDesignDay
7,-3.0
8,19.987943115327145
143,19.987943115327145
206,17.999896608159503
269,17.999896608159503
332,49.57
395,461.1763829331574
396,0.029496
399,461.1763829331574
400,0.029496
403,353.1775902245973
404,0.0044827294921875
407,353.1775902245973
408,0.0044827294921875
409,1626.504246840058
423,46.57672164457854
424,678.3990942195092
499,1.9704788270165103
500,1.9704788270165103
501,0.12998674
529,1628.7079463155094
2,1, 1,15, 0, 2, 0.00,60.00,WinterDesignDay
7,-3.0
8,19.987939546570118
143,19.987939546570118
206,17.9998894743173
269,17.9998894743173
332,49.57
395,461.17643855670417
396,0.029496
399,461.17643855670417
400,0.029496
403,353.17767412562745
404,0.0044827294921875
407,353.17767412562745
408,0.0044827294921875
409,1626.5045269495804
423,46.576721129089094
424,678.3992110504654
499,1.9704788265648356
500,1.9704788265648356
501,0.12998674
529,1628.7082253646631
2,1, 1,15, 0, 3, 0.00,60.00,WinterDesignDay
7,-3.0
8,19.98793607366872
143,19.98793607366872
206,17.99988356215121
269,17.99988356215121
332,49.57
395,461.1764932612849
396,0.029496
399,461.1764932612849
400,0.029496
403,353.17774338010076
404,0.0044827294921875
407,353.17774338010076
408,0.0044827294921875
409,1626.5047758172964
423,46.57672067109438
424,678.3993148507681
499,1.9704788261635384
500,1.9704788261635384
501,0.12998674
529,1628.7084732827714
2,1, 1,15, 0, 4, 0.00,60.00,WinterDesignDay
7,-3.0
8,19.987932799340612
143,19.987932799340612
206,17.999878595891538
269,17.999878595891538
332,49.57
395,461.17654518078825
396,0.029496
399,461.17654518078825
400,0.029496
403,353.1778013697124
404,0.0044827294921875
407,353.1778013697124
408,0.0044827294921875
409,1626.5049964864527
423,46.57672026499387
424,678.3994068897258
499,1.970478825807711
500,1.970478825807711
501,0.12998674
529,1628.7086931010012
2,1, 1,15, 0, 5, 0.00,60.00,WinterDesignDay
7,-3.0
8,19.987929774912793
143,19.987929774912793
206,17.999874379508267
269,17.999874379508267
332,49.57
395,461.1765933482141
396,0.029496
399,461.1765933482141
400,0.029496
403,353.1778504805617
404,0.0044827294921875
407,353.1778504805617
408,0.0044827294921875
409,1626.5051918037027
423,46.57671990554881
424,678.3994883546502
499,1.9704788254927632
500,1.9704788254927632
501,0.12998674
529,1628.7088876575517
2,1, 1,15, 0, 6, 0.00,60.00,WinterDesignDay
7,-3.0
8,19.987927019774475
143,19.987927019774475
206,17.999870769821296
269,17.999870769821296
332,49.57
395,461.176637358687
396,0.029496
399,461.176637358687
400,0.029496
403,353.1778924433426
404,0.0044827294921875
407,353.1778924433426
408,0.0044827294921875
409,1626.5053644281975
423,46.576719587865554
424,678.3995603546473
499,1.9704788252144074
500,1.9704788252144074
501,0.12998674
529,1628.7090596040593
2,1, 1,15, 0, 7, 0.00,60.00,WinterDesignDay
7,-3.0
8,19.98792453402759
143,19.98792453402759
206,17.999867659512518
269,17.999867659512518
332,49.57
395,461.17667714956167
396,0.029496
399,461.17667714956167
400,0.029496
403,353.1779285467367
404,0.0044827294921875
407,353.1779285467367
408,0.0044827294921875
409,1626.5055168193078
423,46.57671930741809
424,678.3996239154965
499,1.9704788249686778
500,1.9704788249686778
501,0.12998674
529,1628.7092113925967
2,1, 1,15, 0, 8, 0.00,60.00,WinterDesignDay
7,-3.0
8,19.987924759742526
143,19.987924759742526
206,18.00028992172443
269,18.00028992172443
332,49.57
395,461.17671285871245
396,0.029496
399,461.17671285871245
400,0.029496
403,353.17068488371945
404,0.0044827294921875
407,353.17068488371945
408,0.0044827294921875
409,1626.5185720475563
423,46.57669527571261
424,678.4050691241615
499,1.9704788039119967
500,1.9704788039119967
501,0.12998674
529,1628.6947954848638
2,1, 1,15, 0, 9, 0.00,60.00,WinterDesignDay
7,-3.0
8,19.987939363863028
143,19.987939363863028
206,18.000049668481928
269,18.000049668481928
332,49.57
395,461.1764967324719
396,0.029496
399,461.1764967324719
400,0.029496
403,353.17571506133766
404,0.0044827294921875
407,353.17571506133766
408,0.0044827294921875
409,1626.500729562456
423,46.57672811916648
424,678.3976271972472
499,1.9704788326895788
500,1.9704788326895788
501,0.12998674
529,1628.7044235876192
2,1, 1,15, 0,10, 0.00,60.00,WinterDesignDay
7,-3.0
8,19.987947833422915
143,19.987947833422915
206,17.999994075475783
269,17.999994075475783
332,49.57
395,461.17634897677635
396,0.029496
399,461.17634897677635
400,0.029496
403,353.17640736916695
404,0.0044827294921875
407,353.17640736916695
408,0.0044827294921875
409,1626.5017983941516
423,46.57672615218066
424,678.3980729965468
499,1.9704788309660952
500,1.9704788309660952
501,0.12998674
529,1628.7055126918867
2,1, 1,15, 0,11, 0.00,60.00,WinterDesignDay
7,-3.0
8,19.9879517883678
143,19.9879517883678
206,17.999961635714968
269,17.999961635714968
332,49.57
395,461.1762713164786
396,0.029496
399,461.1762713164786
400,0.029496
403,353.17681048937953
404,0.0044827294921875
407,353.17681048937953
408,0.0044827294921875
409,1626.5024571437832
423,46.576724939874566
424,678.3983477546082
499,1.9704788299038662
500,1.9704788299038662
501,0.12998674
529,1628.7061636117162
2,1, 1,15, 0,12, 0.00,60.00,WinterDesignDay
7,-3.0
8,19.987952423652118
143,19.987952423652118
206,17.999939373205027
269,17.999939373205027
332,49.57
395,461.17625035477494
396,0.029496
399,461.17625035477494
400,0.029496
403,353.17708133787426
404,0.0044827294921875
407,353.17708133787426
408,0.0044827294921875
409,1626.502960185293
423,46.57672401412029
424,678.398557568327
499,1.9704788290927153
500,1.9704788290927153
501,0.12998674
529,1628.7066633852987
2,1, 1,15, 0,13, 0.00,60.00,WinterDesignDay
7,-3.0
8,19.987950931635957
143,19.987950931635957
206,17.99992306618278
269,17.99992306618278
332,49.57
395,461.17626684004915
396,0.029496
399,461.17626684004915
400,0.029496
403,353.1772770905304
404,0.0044827294921875
407,353.1772770905304
408,0.0044827294921875
409,1626.5033864693744
423,46.576723229623774
424,678.3987353672691
499,1.9704788284053354
500,1.9704788284053354
501,0.12998674
529,1628.707087861159
2,1, 1,15, 0,14, 0.00,60.00,WinterDesignDay
7,-3.0
8,19.98794821400919
143,19.98794821400919
206,17.999910614847913
269,17.999910614847913
332,49.57
395,461.1763054869905
396,0.029496
399,461.1763054869905
400,0.029496
403,353.17742527697106
404,0.0044827294921875
407,353.17742527697106
408,0.0044827294921875
409,1626.5037605633274
423,46.576722539480365
424,678.3988913982167
499,1.970478827800628
500,1.970478827800628
501,0.12998674
529,1628.7074615279232
2,1, 1,15, 0,15, 0.00,60.00,WinterDesignDay
7,-3.0
8,19.987944882345513
143,19.987944882345513
206,17.999900813167287
269,17.999900813167287
332,49.57
395,461.17635572144104
396,0.029496
399,461.17635572144104
400,0.029496
403,353.17754118895465
404,0.0044827294921875
407,353.17754118895465
408,0.0044827294921875
409,1626.504094018804
423,46.576721925817615
424,678.3990304792512
499,1.9704788272629334
500,1.9704788272629334
501,0.12998674
529,1628.7077938207913
2,1, 1,15, 0,16, 0.00,60.00,WinterDesignDay
7,-3.0
8,19.98794132798592
143,19.98794132798592
206,17.999892910865636
269,17.999892910865636
332,49.57
395,461.17641069242734
396,0.029496
399,461.17641069242734
400,0.029496
403,353.1776341693328
404,0.0044827294921875
407,353.1776341693328
408,0.0044827294921875
409,1626.5043909706615
423,46.576721379332994
424,678.3991543349814
499,1.9704788267841007
500,1.9704788267841007
501,0.12998674
529,1628.7080897235203
2,1, 1,15, 0,17, 0.00,60.00,WinterDesignDay
7,-3.0
8,19.987937790130637
143,19.987937790130637
206,17.99988641711576
269,17.99988641711576
332,49.57
395,461.17646616427123
396,0.029496
399,461.17646616427123
400,0.029496
403,353.1777102663872
404,0.0044827294921875
407,353.1777102663872
408,0.0044827294921875
409,1626.5046550636946
423,46.576720893318914
424,678.3992644856157
499,1.9704788263582524
500,1.9704788263582524
501,0.12998674
529,1628.708352861317
2,1, 1,15, 0,18, 0.00,60.00,WinterDesignDay
7,-3.0
8,19.987934407465385
143,19.987934407465385
206,17.999880998810916
269,17.999880998810916
332,49.57
395,461.1765196443843
396,0.029496
399,461.1765196443843
400,0.029496
403,353.1777735539707
404,0.0044827294921875
407,353.1777735539707
408,0.0044827294921875
409,1626.5048894663462
423,46.576720461944454
424,678.3993622526808
499,1.9704788259802801
500,1.9704788259802801
501,0.12998674
529,1628.7085863967102
2,1, 1,15, 0,19, 0.00,60.00,WinterDesignDay
7,-3.0
8,19.987931254046238
143,19.987931254046238
206,17.999876422809688
269,17.999876422809688
332,49.57
395,461.1765697676922
396,0.029496
399,461.1765697676922
400,0.029496
403,353.1778268648193
404,0.0044827294921875
407,353.1778268648193
408,0.0044827294921875
409,1626.5050971175865
423,46.57672007980099
424,678.3994488619925
499,1.970478825645444
500,1.970478825645444
501,0.12998674
529,1628.708793265023
2,1, 1,15, 0,20, 0.00,60.00,WinterDesignDay
7,-3.0
8,19.987928363290624
143,19.987928363290624
206,17.999872521274728
269,17.999872521274728
332,49.57
395,461.1766158820599
396,0.029496
399,461.1766158820599
400,0.029496
403,353.1778722256546
404,0.0044827294921875
407,353.1778722256546
408,0.0044827294921875
409,1626.5052807708516
423,46.576719741821336
424,678.3995254619824
499,1.9704788253493042
500,1.9704788253493042
501,0.12998674
529,1628.7089762154292
2,1, 1,15, 0,21, 0.00,60.00,WinterDesignDay
7,-3.0
8,19.98792574369066
143,19.98792574369066
206,17.999869170113257
269,17.999869170113257
332,49.57
395,461.17665777561837
396,0.029496
399,461.17665777561837
400,0.029496
403,353.1779111260251
404,0.0044827294921875
407,353.1779111260251
408,0.0044827294921875
409,1626.5054429867039
423,46.57671944329325
424,678.3995931206358
499,1.9704788250877323
500,1.9704788250877323
501,0.12998674
529,1628.709137803287
2,1, 1,15, 0,22, 0.00,60.00,WinterDesignDay
7,-3.0
8,19.987923388969005
143,19.987923388969005
206,18.000233007008163
269,18.000233007008163
332,49.57
395,461.1766955000004
396,0.029496
399,461.1766955000004
400,0.029496
403,353.2819734845384
404,0.004486330078125
407,353.2819734845384
408,0.004486330078125
409,1626.6869295389793
423,46.57638540444944
424,678.4752893955862
499,1.9704785324008731
500,1.9704785324008731
501,0.12998674
529,1628.9173379690778
2,1, 1,15, 0,23, 0.00,60.00,WinterDesignDay
7,-3.0
8,19.987933622997772
143,19.987933622997772
206,18.00007252868623
269,18.00007252868623
332,49.57
395,461.1766102551437
396,0.029496
399,461.1766102551437
400,0.029496
403,353.17521800541135
404,0.0044827294921875
407,353.17521800541135
408,0.0044827294921875
409,1626.4994728909146
423,46.57673043183665
424,678.3971030517756
499,1.9704788347159516
500,1.9704788347159516
501,0.12998674
529,1628.70365652111
2,1, 1,15, 0,24, 0.00,60.00,WinterDesignDay
7,-3.0
8,19.987944211545624
143,19.987944211545624
206,18.000016135114944
269,18.000016135114944
332,49.57
395,461.1764155781224
396,0.029496
399,461.1764155781224
400,0.029496
403,353.1761101966084
404,0.0044827294921875
407,353.1761101966084
408,0.0044827294921875
409,1626.501319612385
423,46.576727033289394
424,678.397873301331
499,1.9704788317381274
500,1.9704788317381274
501,0.12998674
529,1628.7050515494618
End of Data
 Number of Records Written=         504
