Program Version,EnergyPlus, Version 24.2.0-94a887817b, YMD=2025.07.04 12:01
1,5,Environment Title[],Latitude[deg],Longitude[deg],Time Zone[],Elevation[m]
2,8,Day of Simulation[],Month[],Day of Month[],DST Indicator[1=yes 0=no],Hour[],StartMinute[],EndMinute[],DayType
3,5,Cumulative Day of Simulation[],Month[],Day of Month[],DST Indicator[1=yes 0=no],DayType  ! When Daily Report Variables Requested
4,2,Cumulative Days of Simulation[],Month[]  ! When Monthly Report Variables Requested
5,1,Cumulative Days of Simulation[] ! When Run Period Report Variables Requested
6,1,Calendar Year of Simulation[] ! When Annual Report Variables Requested
7,1,Environment,Site Outdoor Air Drybulb Temperature [C] !Hourly
8,1,Z1,Zone Air Temperature [C] !Hourly
143,1,Z2,Zone Air Temperature [C] !Hourly
206,1,Z3,Zone Air Temperature [C] !Hourly
269,1,Z4,Zone Air Temperature [C] !Hourly
332,1,HOT WATER LOOP,Plant Supply Side Outlet Temperature [C] !Hourly
395,1,Z1 RADIATOR,Baseboard Total Heating Rate [W] !Hourly
396,1,Z1 RADIATOR,Baseboard Hot Water Mass Flow Rate [kg/s] !Hourly
399,1,Z2 RADIATOR,Baseboard Total Heating Rate [W] !Hourly
400,1,Z2 RADIATOR,Baseboard Hot Water Mass Flow Rate [kg/s] !Hourly
403,1,Z3 RADIATOR,Baseboard Total Heating Rate [W] !Hourly
404,1,Z3 RADIATOR,Baseboard Hot Water Mass Flow Rate [kg/s] !Hourly
407,1,Z4 RADIATOR,Baseboard Total Heating Rate [W] !Hourly
408,1,Z4 RADIATOR,Baseboard Hot Water Mass Flow Rate [kg/s] !Hourly
409,1,HEAT PUMP,Heat Pump Load Side Heat Transfer Rate [W] !Hourly
423,1,HEAT PUMP,Heat Pump Load Side Inlet Temperature [C] !Hourly
424,1,HEAT PUMP,Heat Pump Electricity Rate [W] !Hourly
499,1,SUPPLY PUMP,Pump Electricity Rate [W] !Hourly
500,1,SUPPLY PUMP,Pump Fluid Heat Gain Rate [W] !Hourly
501,1,SUPPLY PUMP,Pump Mass Flow Rate [kg/s] !Hourly
529,1,Baseboard Total Heating Rate All Zones,PythonPlugin:OutputVariable [W] !Hourly
End of Data Dictionary
1,WINTER DESIGN DAY IN (MID) UK,  53.35,  -2.28,   0.00,  69.00
2,1, 1,15, 0, 1, 0.00,60.00,WinterDesignDay
7,-3.0
8,20.99598782399634
143,18.000111052265193
206,18.000111052265193
269,20.99598782399634
332,49.099910098948456
395,520.2798949219533
396,0.029496
399,312.8195901168554
400,0.00293627783203125
403,312.8195901168554
404,0.00293627783203125
407,520.2798949219533
408,0.029496
409,1663.981692860262
423,46.037582488885036
424,686.8973184122796
499,1.9700065436163798
500,1.9700065436163798
501,0.12998674
529,1666.1989700776176
2,1, 1,15, 0, 2, 0.00,60.00,WinterDesignDay
7,-3.0
8,20.996202928016217
143,18.000350118958522
206,18.000350118958522
269,20.996202928016217
332,49.10054793196986
395,520.2876263495841
396,0.029496
399,312.8242465340751
400,0.00293627783203125
403,312.8242465340751
404,0.00293627783203125
407,520.2876263495841
408,0.029496
409,1664.0361810056859
423,46.03812012406394
424,686.9294905275385
499,1.970007014469507
500,1.970007014469507
501,0.12998674
529,1666.2237457673182
2,1, 1,15, 0, 3, 0.00,60.00,WinterDesignDay
7,-3.0
8,20.996409080144268
143,18.000110602967037
206,18.000110602967037
269,20.996409080144268
332,49.101151244053625
395,520.2949976488376
396,0.029496
399,312.71071829388694
400,0.0029344775390625
403,312.71071829388694
404,0.0029344775390625
407,520.2949976488376
408,0.029496
409,1663.8525869506475
423,46.039061451984836
424,686.862855191849
499,1.9700078388715547
500,1.9700078388715547
501,0.12998674
529,1666.0114318854492
2,1, 1,15, 0, 4, 0.00,60.00,WinterDesignDay
7,-3.0
8,20.996614415199325
143,18.000377302233375
206,18.000377302233375
269,20.996614415199325
332,49.101721565840265
395,520.3018388172982
396,0.029496
399,312.83549995673013
400,0.00293627783203125
403,312.83549995673013
404,0.00293627783203125
407,520.3018388172982
408,0.029496
409,1664.0532020805272
423,46.03926259708746
424,686.9543264836425
499,1.970008015031713
500,1.970008015031713
501,0.12998674
529,1666.2746775480568
2,1, 1,15, 0, 5, 0.00,60.00,WinterDesignDay
7,-3.0
8,20.996803010930314
143,17.99987912438155
206,17.99987912438155
269,20.996803010930314
332,49.10225946023744
395,520.3081625307302
396,0.029496
399,312.7269429397804
400,0.0029344775390625
403,312.7269429397804
404,0.0029344775390625
407,520.3081625307302
408,0.029496
409,1663.8779527960467
423,46.04012314072013
424,686.8901420563295
499,1.970008768684651
500,1.970008768684651
501,0.12998674
529,1666.0702109410213
2,1, 1,15, 0, 6, 0.00,60.00,WinterDesignDay
7,-3.0
8,20.996966587377397
143,18.00019361119309
206,18.00019361119309
269,20.996966587377397
332,49.102767932080084
395,520.3145605245453
396,0.029496
399,312.72770190350184
400,0.0029344775390625
403,312.72770190350184
404,0.0029344775390625
407,520.3145605245453
408,0.029496
409,1663.9218476919154
423,46.0405508934685
424,686.9159778939988
499,1.9700091433052784
500,1.9700091433052784
501,0.12998674
529,1666.0845248560943
2,1, 1,15, 0, 7, 0.00,60.00,WinterDesignDay
7,-3.0
8,20.997128646323212
143,17.999935928080504
206,17.999935928080504
269,20.997128646323212
332,49.103249752228265
395,520.3204215689358
396,0.029496
399,312.736600781408
400,0.0029344775390625
403,312.736600781408
404,0.0029344775390625
407,520.3204215689358
408,0.029496
409,1663.919642515464
423,46.041036843696226
424,686.922378567615
499,1.9700095688945694
500,1.9700095688945694
501,0.12998674
529,1666.1140447006878
2,1, 1,15, 0, 8, 0.00,60.00,WinterDesignDay
7,-3.0
8,20.99726783646071
143,17.999905618183483
206,17.999905618183483
269,20.99726783646071
332,49.103706358942866
395,520.3262648432978
396,0.029496
399,312.741679090118
400,0.0029344775390625
403,312.741679090118
404,0.0029344775390625
407,520.3262648432978
408,0.029496
409,1663.9405129971813
423,46.04145510326707
424,686.9379231028381
499,1.970009935201388
500,1.970009935201388
501,0.12998674
529,1666.1358878668316
2,1, 1,15, 0, 9, 0.00,60.00,WinterDesignDay
7,-3.0
8,20.99739829257107
143,17.999930346765318
206,17.999930346765318
269,20.99739829257107
332,49.10414089261315
395,520.33189330015
396,0.029496
399,312.74592029332274
400,0.0029344775390625
403,312.74592029332274
404,0.0029344775390625
407,520.33189330015
408,0.029496
409,1663.9593795311323
423,46.041854971865504
424,686.9523055600287
499,1.9700102854017367
500,1.9700102854017367
501,0.12998674
529,1666.1556271869454
2,1, 1,15, 0,10, 0.00,60.00,WinterDesignDay
7,-3.0
8,20.9975260743617
143,17.9999859757195
206,17.9999859757195
269,20.9975260743617
332,49.10455461230508
395,520.337206083715
396,0.029496
399,312.74960055599524
400,0.0029344775390625
403,312.74960055599524
404,0.0029344775390625
407,520.337206083715
408,0.029496
409,1663.9765250934438
423,46.04223719535276
424,686.9656618352051
499,1.970010620148815
500,1.970010620148815
501,0.12998674
529,1666.1736132794206
2,1, 1,15, 0,11, 0.00,60.00,WinterDesignDay
7,-3.0
8,20.99765396693831
143,18.00006100464887
206,18.00006100464887
269,20.99765396693831
332,49.10494788602034
395,520.3421467977488
396,0.029496
399,312.75285735487154
400,0.0029344775390625
403,312.75285735487154
404,0.0029344775390625
407,520.3421467977488
408,0.029496
409,1663.992083021602
423,46.0426018905505
424,686.9780525318088
499,1.9700109395449181
500,1.9700109395449181
501,0.12998674
529,1666.1900083052408
2,1, 1,15, 0,12, 0.00,60.00,WinterDesignDay
7,-3.0
8,20.997782843427807
143,18.000148758400105
206,18.000148758400105
269,20.997782843427807
332,49.105320676386796
395,520.3466919639773
396,0.029496
399,312.7557666037689
400,0.0029344775390625
403,312.7557666037689
404,0.0029344775390625
407,520.3466919639773
408,0.029496
409,1664.0061460394086
423,46.04294884961885
424,686.9895153383168
499,1.9700112434080073
500,1.9700112434080073
501,0.12998674
529,1666.2049171354925
2,1, 1,15, 0,13, 0.00,60.00,WinterDesignDay
7,-3.0
8,20.9979125592876
143,18.00024498034564
206,18.00024498034564
269,20.9979125592876
332,49.1056728278602
395,520.3508378362308
396,0.029496
399,312.75837409571056
400,0.0029344775390625
403,312.75837409571056
404,0.0029344775390625
407,520.3508378362308
408,0.029496
409,1664.018798719837
423,46.043277764294
424,687.0000827877454
499,1.9700115314680942
500,1.9700115314680942
501,0.12998674
529,1666.218423863883
2,1, 1,15, 0,14, 0.00,60.00,WinterDesignDay
7,-3.0
8,20.998042478559533
143,18.000346730636586
206,18.000346730636586
269,20.998042478559533
332,49.10600421848738
395,520.3545922248886
396,0.029496
399,312.76071074493836
400,0.0029344775390625
403,312.76071074493836
404,0.0029344775390625
407,520.3545922248886
408,0.029496
409,1664.0301211474894
423,46.043588365094415
424,687.0097860723768
499,1.9700118034891547
500,1.9700118034891547
501,0.12998674
529,1666.2306059396537
2,1, 1,15, 0,15, 0.00,60.00,WinterDesignDay
7,-3.0
8,20.998171766269866
143,18.000451837987377
206,18.000451837987377
269,20.998171766269866
332,49.10631483239784
395,520.3579695076585
396,0.029496
399,312.76279943374936
400,0.0029344775390625
403,312.76279943374936
404,0.0029344775390625
407,520.3579695076585
408,0.029496
409,1664.0401921224607
423,46.043880484933915
424,687.0186574663868
499,1.9700120593248445
500,1.9700120593248445
501,0.12998674
529,1666.241537882816
2,1, 1,15, 0,16, 0.00,60.00,WinterDesignDay
7,-3.0
8,20.9982995484832
143,18.000341103132758
206,18.000341103132758
269,20.9982995484832
332,49.106604788250806
395,520.3609880108087
396,0.029496
399,312.768186499802
400,0.0029344775390625
403,312.768186499802
404,0.0029344775390625
407,520.3609880108087
408,0.029496
409,1664.0253109341634
423,46.04419787366048
424,687.0169136779269
499,1.9700123372908682
500,1.9700123372908682
501,0.12998674
529,1666.2583490212216
2,1, 1,15, 0,17, 0.00,60.00,WinterDesignDay
7,-3.0
8,20.998403166924724
143,18.000218907673144
206,18.000218907673144
269,20.998403166924724
332,49.10687489783572
395,520.3639772971959
396,0.029496
399,312.6507749497896
400,0.00293267724609375
403,312.6507749497896
404,0.00293267724609375
407,520.3639772971959
408,0.029496
409,1663.8568428188728
423,46.04477811004298
424,686.9514575089374
499,1.9700128454564965
500,1.9700128454564965
501,0.12998674
529,1666.0295044939708
2,1, 1,15, 0,18, 0.00,60.00,WinterDesignDay
7,-3.0
8,20.998502073461058
143,18.000556054549698
206,18.000556054549698
269,20.998502073461058
332,49.10712821203062
395,520.366791156446
396,0.029496
399,312.7714343595081
400,0.0029344775390625
403,312.7714343595081
404,0.0029344775390625
407,520.366791156446
408,0.029496
409,1664.0732126752907
423,46.04463320538103
424,687.0446335016795
499,1.9700127185503358
500,1.9700127185503358
501,0.12998674
529,1666.276451031908
2,1, 1,15, 0,19, 0.00,60.00,WinterDesignDay
7,-3.0
8,20.998597081327063
143,17.999979849639843
206,17.999979849639843
269,20.998597081327063
332,49.10736583022343
395,520.3694639014471
396,0.029496
399,312.65898768041114
400,0.00293267724609375
403,312.65898768041114
404,0.00293267724609375
407,520.3694639014471
408,0.029496
409,1663.8519803048032
423,46.04527806288975
424,686.9568989116798
499,1.9700132833108135
500,1.9700132833108135
501,0.12998674
529,1666.0569031637165
2,1, 1,15, 0,20, 0.00,60.00,WinterDesignDay
7,-3.0
8,20.998668400194056
143,18.00052448898057
206,18.00052448898057
269,20.998668400194056
332,49.10758896692032
395,520.3721809599488
396,0.029496
399,312.7767542138648
400,0.0029344775390625
403,312.7767542138648
404,0.0029344775390625
407,520.3721809599488
408,0.029496
409,1664.0934485797184
423,46.045056781865334
424,687.0599803664957
499,1.9700130895148318
500,1.9700130895148318
501,0.12998674
529,1666.297870347627
2,1, 1,15, 0,21, 0.00,60.00,WinterDesignDay
7,-3.0
8,20.998748613009965
143,18.000014512809308
206,18.000014512809308
269,20.998748613009965
332,49.10780030749175
395,520.374682026436
396,0.029496
399,312.6631341442005
400,0.00293267724609375
403,312.6631341442005
404,0.00293267724609375
407,520.374682026436
408,0.029496
409,1663.8696738087376
423,46.045680037642704
424,686.9707964734079
499,1.9700136353569055
500,1.9700136353569055
501,0.12998674
529,1666.075632341273
2,1, 1,15, 0,22, 0.00,60.00,WinterDesignDay
7,-3.0
8,20.998812748524063
143,18.000265375210134
206,18.000265375210134
269,20.998812748524063
332,49.10799935153348
395,520.3771098041557
396,0.029496
399,312.7844327824556
400,0.0029344775390625
403,312.7844327824556
404,0.0029344775390625
407,520.3771098041557
408,0.029496
409,1664.086698378552
423,46.045479648990025
424,687.0634211360284
499,1.9700134598582366
500,1.9700134598582366
501,0.12998674
529,1666.3230851732226
2,1, 1,15, 0,23, 0.00,60.00,WinterDesignDay
7,-3.0
8,20.99886532193883
143,18.00010507743033
206,18.00010507743033
269,20.99886532193883
332,49.10818835470086
395,520.3795644103529
396,0.029496
399,312.6666389678071
400,0.00293267724609375
403,312.6666389678071
404,0.00293267724609375
407,520.3795644103529
408,0.029496
409,1663.9168051238992
423,46.04598138855119
424,686.9961440055932
499,1.9700138992775413
500,1.9700138992775413
501,0.12998674
529,1666.0924067563199
2,1, 1,15, 0,24, 0.00,60.00,WinterDesignDay
7,-3.0
8,20.998917427202183
143,17.999944349430727
206,17.999944349430727
269,20.998917427202183
332,49.10836867275931
395,520.381998316525
396,0.029496
399,312.6698819158392
400,0.00293267724609375
403,312.6698819158392
404,0.00293267724609375
407,520.381998316525
408,0.029496
409,1663.8967243516772
423,46.046198696854916
424,686.9905890475757
499,1.9700140895944471
500,1.9700140895944471
501,0.12998674
529,1666.103760464728
End of Data
 Number of Records Written=         504
