Program Version,EnergyPlus, Version 24.2.0-94a887817b, YMD=2026.03.31 11:03
1,5,Environment Title[],Latitude[deg],Longitude[deg],Time Zone[],Elevation[m]
2,8,Day of Simulation[],Month[],Day of Month[],DST Indicator[1=yes 0=no],Hour[],StartMinute[],EndMinute[],DayType
3,5,Cumulative Day of Simulation[],Month[],Day of Month[],DST Indicator[1=yes 0=no],DayType  ! When Daily Report Variables Requested
4,2,Cumulative Days of Simulation[],Month[]  ! When Monthly Report Variables Requested
5,1,Cumulative Days of Simulation[] ! When Run Period Report Variables Requested
6,1,Calendar Year of Simulation[] ! When Annual Report Variables Requested
7,1,Environment,Site Outdoor Air Drybulb Temperature [C] !Hourly
8,1,Z1,Zone Air Temperature [C] !Hourly
143,1,Z2,Zone Air Temperature [C] !Hourly
206,1,Z3,Zone Air Temperature [C] !Hourly
269,1,Z4,Zone Air Temperature [C] !Hourly
332,1,HOT WATER LOOP,Plant Supply Side Outlet Temperature [C] !Hourly
395,1,Z1 RADIATOR,Baseboard Total Heating Rate [W] !Hourly
396,1,Z1 RADIATOR,Baseboard Hot Water Mass Flow Rate [kg/s] !Hourly
399,1,Z2 RADIATOR,Baseboard Total Heating Rate [W] !Hourly
400,1,Z2 RADIATOR,Baseboard Hot Water Mass Flow Rate [kg/s] !Hourly
403,1,Z3 RADIATOR,Baseboard Total Heating Rate [W] !Hourly
404,1,Z3 RADIATOR,Baseboard Hot Water Mass Flow Rate [kg/s] !Hourly
407,1,Z4 RADIATOR,Baseboard Total Heating Rate [W] !Hourly
408,1,Z4 RADIATOR,Baseboard Hot Water Mass Flow Rate [kg/s] !Hourly
409,1,HEAT PUMP,Heat Pump Load Side Heat Transfer Rate [W] !Hourly
423,1,HEAT PUMP,Heat Pump Load Side Inlet Temperature [C] !Hourly
424,1,HEAT PUMP,Heat Pump Load Side Outlet Temperature [C] !Hourly
425,1,HEAT PUMP,Heat Pump Electricity Rate [W] !Hourly
500,1,SUPPLY PUMP,Pump Electricity Rate [W] !Hourly
501,1,SUPPLY PUMP,Pump Fluid Heat Gain Rate [W] !Hourly
502,1,SUPPLY PUMP,Pump Mass Flow Rate [kg/s] !Hourly
530,1,Baseboard Total Heating Rate All Zones,PythonPlugin:OutputVariable [W] !Hourly
End of Data Dictionary
1,WINTER DESIGN DAY IN (MID) UK,  53.35,  -2.28,   0.00,  69.00
2,1, 1,15, 0, 1, 0.00,60.00,WinterDesignDay
7,-3.0
8,20.99953879153862
143,20.99953879153862
206,17.999071789373517
269,17.999071789373517
332,47.37651017012931
395,562.8704349152792
396,0.028689468750000002
399,562.8704349152792
400,0.028689468750000002
403,382.1204004728986
404,0.004075863281250001
407,382.1204004728986
408,0.004075863281250001
409,1887.8068930317054
423,43.90209083082578
424,47.37651017012931
425,749.6241973566083
500,1.968225335228832
501,1.968225335228832
502,0.12998674
530,1889.9816707763557
2,1, 1,15, 0, 2, 0.00,60.00,WinterDesignDay
7,-3.0
8,20.998496602255493
143,20.998496602255493
206,17.99905692285791
269,17.99905692285791
332,47.37661021744984
395,562.6424137537326
396,0.028574250000000002
399,562.6424137537326
400,0.028574250000000002
403,382.1218931945874
404,0.004075863281250001
407,382.1218931945874
408,0.004075863281250001
409,1887.350451350216
423,43.9030309374825
424,47.37661021744984
425,749.4446720858087
500,1.9682260823589628
501,1.9682260823589628
502,0.12998674
530,1889.5286138966403
2,1, 1,15, 0, 3, 0.00,60.00,WinterDesignDay
7,-3.0
8,20.999494029854368
143,20.999494029854368
206,17.99903456645909
269,17.99903456645909
332,47.37685345627783
395,562.8853939151808
396,0.028689468750000002
399,562.8853939151808
400,0.028689468750000002
403,382.12528117020406
404,0.004075863281250001
407,382.12528117020406
408,0.004075863281250001
409,1887.852366653183
423,43.90235042492377
424,47.37685345627783
425,749.6481644488831
500,1.9682255415358914
501,1.9682255415358914
502,0.12998674
530,1890.0213501707697
2,1, 1,15, 0, 4, 0.00,60.00,WinterDesignDay
7,-3.0
8,20.998581775763892
143,20.998581775763892
206,17.99903946171318
269,17.99903946171318
332,47.37694226206591
395,562.6412755968826
396,0.028574250000000002
399,562.6412755968826
400,0.028574250000000002
403,382.126636563647
404,0.004075863281250001
407,382.126636563647
408,0.004075863281250001
409,1887.351621145652
423,43.90336082914538
424,47.37694226206591
425,749.4508514867639
500,1.9682263445338222
501,1.9682263445338222
502,0.12998674
530,1889.5358243210594
2,1, 1,15, 0, 5, 0.00,60.00,WinterDesignDay
7,-3.0
8,20.998401670413465
143,20.998401670413465
206,17.999033822001643
269,17.999033822001643
332,47.37715969985942
395,562.6560168627634
396,0.028574250000000002
399,562.6560168627634
400,0.028574250000000002
403,382.129342017082
404,0.004075863281250001
407,382.129342017082
408,0.004075863281250001
409,1887.397049216126
423,43.90349465872282
424,47.37715969985942
425,749.4726330251488
500,1.9682264508922462
501,1.9682264508922462
502,0.12998674
530,1889.5707177596908
2,1, 1,15, 0, 6, 0.00,60.00,WinterDesignDay
7,-3.0
8,20.9995631102644
143,20.9995631102644
206,17.999031513008234
269,17.999031513008234
332,47.37738782122531
395,562.8889654031253
396,0.028689468750000002
399,562.8889654031253
400,0.028689468750000002
403,382.13247115939754
404,0.004075863281250001
407,382.13247115939754
408,0.004075863281250001
409,1887.868205924055
423,43.90285563844201
424,47.37738782122531
425,749.6636534888647
500,1.968225943044169
501,1.968225943044169
502,0.12998674
530,1890.0428731250456
2,1, 1,15, 0, 7, 0.00,60.00,WinterDesignDay
7,-3.0
8,20.998563240808732
143,20.998563240808732
206,17.999053508481076
269,17.999053508481076
332,47.3774830728681
395,562.6597984579398
396,0.028574250000000002
399,562.6597984579398
400,0.028574250000000002
403,382.13341782626173
404,0.004075863281250001
407,382.13341782626173
408,0.004075863281250001
409,1887.4079541405772
423,43.9037979617336
424,47.3774830728681
425,749.482529100169
500,1.9682266919363887
501,1.9682266919363887
502,0.12998674
530,1889.5864325684029
2,1, 1,15, 0, 8, 0.00,60.00,WinterDesignDay
7,-3.0
8,20.998412976480893
143,20.998412976480893
206,17.999060532771914
269,17.999060532771914
332,47.37771489402046
395,562.667981278849
396,0.028574250000000002
399,562.667981278849
400,0.028574250000000002
403,382.13625849194
404,0.004075863281250001
407,382.13625849194
408,0.004075863281250001
409,1887.4349059824617
423,43.90398017929513
424,47.37771489402046
425,749.4972216676574
500,1.9682268367502649
501,1.9682268367502649
502,0.12998674
530,1889.608479541578
2,1, 1,15, 0, 9, 0.00,60.00,WinterDesignDay
7,-3.0
8,20.999069555968184
143,20.999069555968184
206,17.999066247244507
269,17.999066247244507
332,47.37797074749605
395,562.9256620605015
396,0.028689468750000002
399,562.9256620605015
400,0.028689468750000002
403,382.13949814426445
404,0.004075863281250001
407,382.13949814426445
408,0.004075863281250001
409,1887.8936358816545
423,43.90339176207801
424,47.37797074749605
425,749.6837877423807
500,1.9682263691177369
501,1.9682263691177369
502,0.12998674
530,1890.1303204095323
2,1, 1,15, 0,10, 0.00,60.00,WinterDesignDay
7,-3.0
8,20.998994239747738
143,20.998994239747738
206,17.999094754721348
269,17.999094754721348
332,47.37811183433723
395,562.6510167899164
396,0.028574250000000002
399,562.6510167899164
400,0.028574250000000002
403,382.14123733055396
404,0.004075863281250001
407,382.14123733055396
408,0.004075863281250001
409,1887.4685314567114
423,43.9043152335162
424,47.37811183433723
425,749.5174065387937
500,1.968227103028175
501,1.968227103028175
502,0.12998674
530,1889.584508240941
2,1, 1,15, 0,11, 0.00,60.00,WinterDesignDay
7,-3.0
8,20.9985655819164
143,20.9985655819164
206,17.9991230476563
269,17.9991230476563
332,47.37827515628159
395,562.6765676314801
396,0.028574250000000002
399,562.6765676314801
400,0.028574250000000002
403,382.14280243628053
404,0.004075863281250001
407,382.14280243628053
408,0.004075863281250001
409,1887.4644993213676
423,43.90448597641504
424,47.37827515628159
425,749.5186164915433
500,1.968227238722835
501,1.968227238722835
502,0.12998674
530,1889.6387401355214
2,1, 1,15, 0,12, 0.00,60.00,WinterDesignDay
7,-3.0
8,20.99845659892474
143,20.99845659892474
206,17.999143044908614
269,17.999143044908614
332,47.378507255877665
395,562.6842821489811
396,0.028574250000000002
399,562.6842821489811
400,0.028574250000000002
403,382.14554159277134
404,0.004075863281250001
407,382.14554159277134
408,0.004075863281250001
409,1887.4861152978538
423,43.9046782928283
424,47.378507255877665
425,749.5311952659947
500,1.9682273915626634
501,1.9682273915626634
502,0.12998674
530,1889.659647483505
2,1, 1,15, 0,13, 0.00,60.00,WinterDesignDay
7,-3.0
8,20.998405460624575
143,20.998405460624575
206,17.999162424510097
269,17.999162424510097
332,47.37875530225476
395,562.6908653131171
396,0.028574250000000002
399,562.6908653131171
400,0.028574250000000002
403,382.14851204148124
404,0.004075863281250001
407,382.14851204148124
408,0.004075863281250001
409,1887.5057404178203
423,43.90489022009989
424,47.37875530225476
425,749.5432580329558
500,1.9682275599878774
501,1.9682275599878774
502,0.12998674
530,1889.6787547091967
2,1, 1,15, 0,14, 0.00,60.00,WinterDesignDay
7,-3.0
8,20.998385102718167
143,20.998385102718167
206,17.999184127568384
269,17.999184127568384
332,47.37901088429926
395,562.6968824725153
396,0.028574250000000002
399,562.6968824725153
400,0.028574250000000002
403,382.1515619041149
404,0.004075863281250001
407,382.1515619041149
408,0.004075863281250001
409,1887.5241179754316
423,43.905111979118416
424,47.37901088429926
425,749.5549551787904
500,1.968227736226718
501,1.968227736226718
502,0.12998674
530,1889.6968887532603
2,1, 1,15, 0,15, 0.00,60.00,WinterDesignDay
7,-3.0
8,20.998387286567645
143,20.998387286567645
206,17.999209512766384
269,17.999209512766384
332,47.37926926599526
395,562.7024578663788
396,0.028574250000000002
399,562.7024578663788
400,0.028574250000000002
403,382.1546074169248
404,0.004075863281250001
407,382.1546074169248
408,0.004075863281250001
409,1887.5414213489516
423,43.90533851477348
424,47.37926926599526
425,749.5662740285374
500,1.9682279162617342
501,1.9682279162617342
502,0.12998674
530,1889.7141305666073
2,1, 1,15, 0,16, 0.00,60.00,WinterDesignDay
7,-3.0
8,20.998405395011673
143,20.998405395011673
206,17.999239181453156
269,17.999239181453156
332,47.379526966935686
395,562.7076431237358
396,0.028574250000000002
399,562.7076431237358
400,0.028574250000000002
403,382.15759173801325
404,0.004075863281250001
407,382.15759173801325
408,0.004075863281250001
409,1887.5576888284656
423,43.905566276186924
424,47.379526966935686
425,749.5771698730348
500,1.968228097270932
501,1.968228097270932
502,0.12998674
530,1889.7304697234981
2,1, 1,15, 0,17, 0.00,60.00,WinterDesignDay
7,-3.0
8,20.99843525129971
143,20.99843525129971
206,17.999273265799477
269,17.999273265799477
332,47.37978152949482
395,562.712499408343
396,0.028574250000000002
399,562.712499408343
400,0.028574250000000002
403,382.1604794855572
404,0.004075863281250001
407,382.1604794855572
408,0.004075863281250001
409,1887.5730132346455
423,43.905792634900955
424,47.37978152949482
425,749.5876372617114
500,1.9682282771653936
501,1.9682282771653936
502,0.12998674
530,1889.7459577878003
2,1, 1,15, 0,18, 0.00,60.00,WinterDesignDay
7,-3.0
8,20.998474480822914
143,20.998474480822914
206,17.999311615949452
269,17.999311615949452
332,47.380031123219396
395,562.7170405849889
396,0.028574250000000002
399,562.7170405849889
400,0.028574250000000002
403,382.1632477130403
404,0.004075863281250001
407,382.1632477130403
408,0.004075863281250001
409,1887.5873966205863
423,43.90601575668369
424,47.380031123219396
425,749.5976454937914
500,1.968228454487395
501,1.968228454487395
502,0.12998674
530,1889.7605765960584
2,1, 1,15, 0,19, 0.00,60.00,WinterDesignDay
7,-3.0
8,20.998521235779386
143,20.998521235779386
206,17.99935392786913
269,17.99935392786913
332,47.38027428604046
395,562.721276788079
396,0.028574250000000002
399,562.721276788079
400,0.028574250000000002
403,382.16588066974384
404,0.004075863281250001
407,382.16588066974384
408,0.004075863281250001
409,1887.600842239409
423,43.906234173478964
424,47.38027428604046
425,749.6071706855092
500,1.9682286280702237
501,1.9682286280702237
502,0.12998674
530,1889.7743149156454
2,1, 1,15, 0,20, 0.00,60.00,WinterDesignDay
7,-3.0
8,20.998574012197903
143,20.998574012197903
206,17.99939981079006
269,17.99939981079006
332,47.38050984454732
395,562.7252163062037
396,0.028574250000000002
399,562.7252163062037
400,0.028574250000000002
403,382.16836772606075
404,0.004075863281250001
407,382.16836772606075
408,0.004075863281250001
409,1887.6133568184669
423,43.906446699494694
424,47.38050984454732
425,749.6161953012574
500,1.96822879697149
501,1.96822879697149
502,0.12998674
530,1889.7871680645294
2,1, 1,15, 0,21, 0.00,60.00,WinterDesignDay
7,-3.0
8,20.9986315533849
143,20.9986315533849
206,17.999448828345475
269,17.999448828345475
332,47.38073686089433
395,562.7288668241732
396,0.028574250000000002
399,562.7288668241732
400,0.028574250000000002
403,382.17070206104205
404,0.004075863281250001
407,382.17070206104205
408,0.004075863281250001
409,1887.6249514756246
423,43.906652376423345
424,47.38073686089433
425,749.624707603847
500,1.9682289604295948
501,1.9682289604295948
502,0.12998674
530,1889.7991377704304
2,1, 1,15, 0,22, 0.00,60.00,WinterDesignDay
7,-3.0
8,20.998692790586503
143,20.998692790586503
206,17.999500522762652
269,17.999500522762652
332,47.380954594450074
395,562.7322358805502
396,0.028574250000000002
399,562.7322358805502
400,0.028574250000000002
403,382.1728793997054
404,0.004075863281250001
407,382.1728793997054
408,0.004075863281250001
409,1887.6356441371236
423,43.9068504306411
424,47.380954594450074
425,749.6327019547991
500,1.9682291178297096
501,1.9682291178297096
502,0.12998674
530,1889.8102305605112
2,1, 1,15, 0,23, 0.00,60.00,WinterDesignDay
7,-3.0
8,20.998756806287616
143,20.998756806287616
206,17.999554441032007
269,17.999554441032007
332,47.38116247251503
395,562.7353317287198
396,0.028574250000000002
399,562.7353317287198
400,0.028574250000000002
403,382.17489926601326
404,0.004075863281250001
407,382.17489926601326
408,0.004075863281250001
409,1887.645446734359
423,43.90704026748929
424,47.38116247251503
425,749.6401732259602
500,1.9682292686992382
501,1.9682292686992382
502,0.12998674
530,1889.8204619894661
2,1, 1,15, 0,24, 0.00,60.00,WinterDesignDay
7,-3.0
8,20.99882280115734
143,20.99882280115734
206,17.999610128967856
269,17.999610128967856
332,47.38136006676518
395,562.7381622374992
396,0.028574250000000002
399,562.7381622374992
400,0.028574250000000002
403,382.17676045850476
404,0.004075863281250001
407,382.17676045850476
408,0.004075863281250001
409,1887.654390789995
423,43.907221400627876
424,47.38136006676518
425,749.6471265551227
500,1.9682294126516666
501,1.9682294126516666
502,0.12998674
530,1889.8298453920079
End of Data
 Number of Records Written=         528
