Program Version,EnergyPlus, Version 24.2.0-94a887817b, YMD=2025.06.10 19:46
1,5,Environment Title[],Latitude[deg],Longitude[deg],Time Zone[],Elevation[m]
2,8,Day of Simulation[],Month[],Day of Month[],DST Indicator[1=yes 0=no],Hour[],StartMinute[],EndMinute[],DayType
3,5,Cumulative Day of Simulation[],Month[],Day of Month[],DST Indicator[1=yes 0=no],DayType  ! When Daily Report Variables Requested
4,2,Cumulative Days of Simulation[],Month[]  ! When Monthly Report Variables Requested
5,1,Cumulative Days of Simulation[] ! When Run Period Report Variables Requested
6,1,Calendar Year of Simulation[] ! When Annual Report Variables Requested
7,1,Environment,Site Outdoor Air Drybulb Temperature [C] !Hourly
8,1,EXT SURFACE EAST SOUTH,Surface Inside Face Temperature [C] !Hourly
9,1,EXT SURFACE EAST SOUTH,Surface Outside Face Temperature [C] !Hourly
10,1,EXT SURFACE EAST SOUTH,Surface Inside Face Adjacent Air Temperature [C] !Hourly
11,1,EXT SURFACE EAST SOUTH,Surface Outside Face Outdoor Air Drybulb Temperature [C] !Hourly
12,1,EXT SURFACE EAST SOUTH,Surface Average Face Conduction Heat Transfer Rate [W] !Hourly
13,1,EXT SURFACE SOUTH EAST,Surface Inside Face Temperature [C] !Hourly
14,1,EXT SURFACE SOUTH EAST,Surface Outside Face Temperature [C] !Hourly
15,1,EXT SURFACE SOUTH EAST,Surface Inside Face Adjacent Air Temperature [C] !Hourly
16,1,EXT SURFACE SOUTH EAST,Surface Outside Face Outdoor Air Drybulb Temperature [C] !Hourly
17,1,EXT SURFACE SOUTH EAST,Surface Average Face Conduction Heat Transfer Rate [W] !Hourly
18,1,EXT SURFACE ROOF SE,Surface Inside Face Temperature [C] !Hourly
19,1,EXT SURFACE ROOF SE,Surface Outside Face Temperature [C] !Hourly
20,1,EXT SURFACE ROOF SE,Surface Inside Face Adjacent Air Temperature [C] !Hourly
21,1,EXT SURFACE ROOF SE,Surface Outside Face Outdoor Air Drybulb Temperature [C] !Hourly
22,1,EXT SURFACE ROOF SE,Surface Average Face Conduction Heat Transfer Rate [W] !Hourly
23,1,PZ1Z2,Surface Inside Face Temperature [C] !Hourly
24,1,PZ1Z2,Surface Outside Face Temperature [C] !Hourly
25,1,PZ1Z2,Surface Inside Face Adjacent Air Temperature [C] !Hourly
26,1,PZ1Z2,Surface Average Face Conduction Heat Transfer Rate [W] !Hourly
27,1,PZ1Z3,Surface Inside Face Temperature [C] !Hourly
28,1,PZ1Z3,Surface Outside Face Temperature [C] !Hourly
29,1,PZ1Z3,Surface Inside Face Adjacent Air Temperature [C] !Hourly
30,1,PZ1Z3,Surface Average Face Conduction Heat Transfer Rate [W] !Hourly
31,1,EXT SURFACE FLOOR SE,Surface Inside Face Temperature [C] !Hourly
32,1,EXT SURFACE FLOOR SE,Surface Outside Face Temperature [C] !Hourly
33,1,EXT SURFACE FLOOR SE,Surface Inside Face Adjacent Air Temperature [C] !Hourly
34,1,EXT SURFACE FLOOR SE,Surface Average Face Conduction Heat Transfer Rate [W] !Hourly
35,1,EXT SURFACE SOUTH WEST,Surface Inside Face Temperature [C] !Hourly
36,1,EXT SURFACE SOUTH WEST,Surface Outside Face Temperature [C] !Hourly
37,1,EXT SURFACE SOUTH WEST,Surface Inside Face Adjacent Air Temperature [C] !Hourly
38,1,EXT SURFACE SOUTH WEST,Surface Outside Face Outdoor Air Drybulb Temperature [C] !Hourly
39,1,EXT SURFACE SOUTH WEST,Surface Average Face Conduction Heat Transfer Rate [W] !Hourly
40,1,EXT SURFACE WEST SOUTH,Surface Inside Face Temperature [C] !Hourly
41,1,EXT SURFACE WEST SOUTH,Surface Outside Face Temperature [C] !Hourly
42,1,EXT SURFACE WEST SOUTH,Surface Inside Face Adjacent Air Temperature [C] !Hourly
43,1,EXT SURFACE WEST SOUTH,Surface Outside Face Outdoor Air Drybulb Temperature [C] !Hourly
44,1,EXT SURFACE WEST SOUTH,Surface Average Face Conduction Heat Transfer Rate [W] !Hourly
45,1,EXT SURFACE ROOF SW,Surface Inside Face Temperature [C] !Hourly
46,1,EXT SURFACE ROOF SW,Surface Outside Face Temperature [C] !Hourly
47,1,EXT SURFACE ROOF SW,Surface Inside Face Adjacent Air Temperature [C] !Hourly
48,1,EXT SURFACE ROOF SW,Surface Outside Face Outdoor Air Drybulb Temperature [C] !Hourly
49,1,EXT SURFACE ROOF SW,Surface Average Face Conduction Heat Transfer Rate [W] !Hourly
50,1,PZ2Z1,Surface Inside Face Temperature [C] !Hourly
51,1,PZ2Z1,Surface Outside Face Temperature [C] !Hourly
52,1,PZ2Z1,Surface Inside Face Adjacent Air Temperature [C] !Hourly
53,1,PZ2Z1,Surface Average Face Conduction Heat Transfer Rate [W] !Hourly
54,1,PZ2Z4,Surface Inside Face Temperature [C] !Hourly
55,1,PZ2Z4,Surface Outside Face Temperature [C] !Hourly
56,1,PZ2Z4,Surface Inside Face Adjacent Air Temperature [C] !Hourly
57,1,PZ2Z4,Surface Average Face Conduction Heat Transfer Rate [W] !Hourly
58,1,EXT SURFACE FLOOR SW,Surface Inside Face Temperature [C] !Hourly
59,1,EXT SURFACE FLOOR SW,Surface Outside Face Temperature [C] !Hourly
60,1,EXT SURFACE FLOOR SW,Surface Inside Face Adjacent Air Temperature [C] !Hourly
61,1,EXT SURFACE FLOOR SW,Surface Average Face Conduction Heat Transfer Rate [W] !Hourly
62,1,EXT SURFACE NORTH EAST,Surface Inside Face Temperature [C] !Hourly
63,1,EXT SURFACE NORTH EAST,Surface Outside Face Temperature [C] !Hourly
64,1,EXT SURFACE NORTH EAST,Surface Inside Face Adjacent Air Temperature [C] !Hourly
65,1,EXT SURFACE NORTH EAST,Surface Outside Face Outdoor Air Drybulb Temperature [C] !Hourly
66,1,EXT SURFACE NORTH EAST,Surface Average Face Conduction Heat Transfer Rate [W] !Hourly
67,1,EXT SURFACE EAST NORTH,Surface Inside Face Temperature [C] !Hourly
68,1,EXT SURFACE EAST NORTH,Surface Outside Face Temperature [C] !Hourly
69,1,EXT SURFACE EAST NORTH,Surface Inside Face Adjacent Air Temperature [C] !Hourly
70,1,EXT SURFACE EAST NORTH,Surface Outside Face Outdoor Air Drybulb Temperature [C] !Hourly
71,1,EXT SURFACE EAST NORTH,Surface Average Face Conduction Heat Transfer Rate [W] !Hourly
72,1,EXT SURFACE ROOF NE,Surface Inside Face Temperature [C] !Hourly
73,1,EXT SURFACE ROOF NE,Surface Outside Face Temperature [C] !Hourly
74,1,EXT SURFACE ROOF NE,Surface Inside Face Adjacent Air Temperature [C] !Hourly
75,1,EXT SURFACE ROOF NE,Surface Outside Face Outdoor Air Drybulb Temperature [C] !Hourly
76,1,EXT SURFACE ROOF NE,Surface Average Face Conduction Heat Transfer Rate [W] !Hourly
77,1,PZ3Z1,Surface Inside Face Temperature [C] !Hourly
78,1,PZ3Z1,Surface Outside Face Temperature [C] !Hourly
79,1,PZ3Z1,Surface Inside Face Adjacent Air Temperature [C] !Hourly
80,1,PZ3Z1,Surface Average Face Conduction Heat Transfer Rate [W] !Hourly
81,1,PZ3Z4,Surface Inside Face Temperature [C] !Hourly
82,1,PZ3Z4,Surface Outside Face Temperature [C] !Hourly
83,1,PZ3Z4,Surface Inside Face Adjacent Air Temperature [C] !Hourly
84,1,PZ3Z4,Surface Average Face Conduction Heat Transfer Rate [W] !Hourly
85,1,EXT SURFACE FLOOR NE,Surface Inside Face Temperature [C] !Hourly
86,1,EXT SURFACE FLOOR NE,Surface Outside Face Temperature [C] !Hourly
87,1,EXT SURFACE FLOOR NE,Surface Inside Face Adjacent Air Temperature [C] !Hourly
88,1,EXT SURFACE FLOOR NE,Surface Average Face Conduction Heat Transfer Rate [W] !Hourly
89,1,EXT SURFACE NORTH WEST,Surface Inside Face Temperature [C] !Hourly
90,1,EXT SURFACE NORTH WEST,Surface Outside Face Temperature [C] !Hourly
91,1,EXT SURFACE NORTH WEST,Surface Inside Face Adjacent Air Temperature [C] !Hourly
92,1,EXT SURFACE NORTH WEST,Surface Outside Face Outdoor Air Drybulb Temperature [C] !Hourly
93,1,EXT SURFACE NORTH WEST,Surface Average Face Conduction Heat Transfer Rate [W] !Hourly
94,1,EXT SURFACE WEST NORTH,Surface Inside Face Temperature [C] !Hourly
95,1,EXT SURFACE WEST NORTH,Surface Outside Face Temperature [C] !Hourly
96,1,EXT SURFACE WEST NORTH,Surface Inside Face Adjacent Air Temperature [C] !Hourly
97,1,EXT SURFACE WEST NORTH,Surface Outside Face Outdoor Air Drybulb Temperature [C] !Hourly
98,1,EXT SURFACE WEST NORTH,Surface Average Face Conduction Heat Transfer Rate [W] !Hourly
99,1,EXT SURFACE ROOF NW,Surface Inside Face Temperature [C] !Hourly
100,1,EXT SURFACE ROOF NW,Surface Outside Face Temperature [C] !Hourly
101,1,EXT SURFACE ROOF NW,Surface Inside Face Adjacent Air Temperature [C] !Hourly
102,1,EXT SURFACE ROOF NW,Surface Outside Face Outdoor Air Drybulb Temperature [C] !Hourly
103,1,EXT SURFACE ROOF NW,Surface Average Face Conduction Heat Transfer Rate [W] !Hourly
104,1,PZ4Z2,Surface Inside Face Temperature [C] !Hourly
105,1,PZ4Z2,Surface Outside Face Temperature [C] !Hourly
106,1,PZ4Z2,Surface Inside Face Adjacent Air Temperature [C] !Hourly
107,1,PZ4Z2,Surface Average Face Conduction Heat Transfer Rate [W] !Hourly
108,1,PZ4Z3,Surface Inside Face Temperature [C] !Hourly
109,1,PZ4Z3,Surface Outside Face Temperature [C] !Hourly
110,1,PZ4Z3,Surface Inside Face Adjacent Air Temperature [C] !Hourly
111,1,PZ4Z3,Surface Average Face Conduction Heat Transfer Rate [W] !Hourly
112,1,EXT SURFACE FLOOR NW,Surface Inside Face Temperature [C] !Hourly
113,1,EXT SURFACE FLOOR NW,Surface Outside Face Temperature [C] !Hourly
114,1,EXT SURFACE FLOOR NW,Surface Inside Face Adjacent Air Temperature [C] !Hourly
115,1,EXT SURFACE FLOOR NW,Surface Average Face Conduction Heat Transfer Rate [W] !Hourly
116,1,Z1,Zone Air Temperature [C] !Hourly
117,1,Z1,Zone Air System Sensible Heating Energy [J] !Hourly
251,1,Z1,Zone Predicted Sensible Load to Setpoint Heat Transfer Rate [W] !Hourly
252,1,Z2,Zone Air Temperature [C] !Hourly
253,1,Z2,Zone Air System Sensible Heating Energy [J] !Hourly
315,1,Z2,Zone Predicted Sensible Load to Setpoint Heat Transfer Rate [W] !Hourly
316,1,Z3,Zone Air Temperature [C] !Hourly
317,1,Z3,Zone Air System Sensible Heating Energy [J] !Hourly
379,1,Z3,Zone Predicted Sensible Load to Setpoint Heat Transfer Rate [W] !Hourly
380,1,Z4,Zone Air Temperature [C] !Hourly
381,1,Z4,Zone Air System Sensible Heating Energy [J] !Hourly
443,1,Z4,Zone Predicted Sensible Load to Setpoint Heat Transfer Rate [W] !Hourly
542,1,Z1 PURCHASED AIR,Zone Ideal Loads Zone Total Heating Rate [W] !Hourly
545,1,Z2 PURCHASED AIR,Zone Ideal Loads Zone Total Heating Rate [W] !Hourly
548,1,Z3 PURCHASED AIR,Zone Ideal Loads Zone Total Heating Rate [W] !Hourly
551,1,Z4 PURCHASED AIR,Zone Ideal Loads Zone Total Heating Rate [W] !Hourly
446,1,DistrictHeatingWater:Facility [J] !Hourly
End of Data Dictionary
1,SUMMER DESIGN DAY IN SALFORD ENERGY HOUSE 1.0 (01-01:31-12) JUN HVAC Sizing Pass 1,  53.35,  -2.28,   0.00,  69.00
2,1, 6,15, 1, 1, 0.00,60.00,SummerDesignDay
7,18.983
8,20.998230698263356
9,19.088239675792614
10,21.41245539720871
11,18.985274999051487
12,-11.792837086735966
13,20.998230698263356
14,19.088239675792614
15,21.41245539720871
16,18.985274999051487
17,-11.792837086735966
18,21.082275317647856
19,19.085455928353372
20,21.41245539720871
21,18.97780000310887
22,-21.44163865220179
23,21.636648094888745
24,21.63664809578373
25,21.41245539720871
26,1.0845332532039009e-7
27,21.636648093938224
28,21.63664809430285
29,21.41245539720871
30,4.418853760679298e-8
31,21.4130536276053
32,18.0
33,21.41245539720871
34,-0.0005380183058294072
35,20.998230702802786
36,19.08823967602505
37,21.412455402670656
38,18.985274999051487
39,-11.792837113281776
40,20.998230702802786
41,19.08823967602505
42,21.412455402670656
43,18.985274999051487
44,-11.792837113281776
45,21.08227532237503
46,19.085455928595636
47,21.412455402670656
48,18.97780000310887
49,-21.441638700275462
50,21.63664809578373
51,21.636648094888745
52,21.412455402670656
53,-1.0845187070618323e-7
54,21.636648098068708
55,21.63664809844868
56,21.412455402670656
57,4.60359245169073e-8
58,21.41305363307346
59,18.0
60,21.412455402670656
61,-0.0005380183066913824
62,20.99823070009993
63,19.088239675886648
64,21.412455399418597
65,18.985274999051487
66,-11.792837097476172
67,20.99823070009993
68,19.088239675886648
69,21.412455399418597
70,18.985274999051487
71,-11.792837097476172
72,21.082275319560413
73,19.08545592845139
74,21.412455399418597
75,18.97780000310887
76,-21.441638671652264
77,21.63664809430285
78,21.636648093938224
79,21.412455399418597
80,-4.418703403175073e-8
81,21.636648096587827
82,21.63664809749816
83,21.412455399418597
84,1.1030041813242519e-7
85,21.41305362981767
86,18.0
87,21.412455399418597
88,-0.0005380183061781551
89,20.998230704760832
90,19.08823967612532
91,21.412455405026446
92,18.985274999051487
93,-11.792837124731538
94,20.998230704760832
95,19.08823967612532
96,21.412455405026446
97,18.985274999051487
98,-11.792837124731538
99,21.082275324413995
100,19.085455928700142
101,21.412455405026446
102,18.97780000310887
103,-21.441638721009994
104,21.63664809844868
105,21.636648098068708
106,21.412455405026446
107,-4.6034551837159654e-8
108,21.63664809749816
109,21.636648096587827
110,21.412455405026446
111,-1.1029902891035448e-7
112,21.41305363543199
113,18.0
114,21.412455405026446
115,-0.0005380183070631706
116,21.28855785637169
117,0.0
251,-252.0511078445519
252,21.288557860798402
253,0.0
315,-252.0511097345027
316,21.288557858166065
317,0.0
379,-252.0511086142738
380,21.288557862699637
381,0.0
443,-252.05111053750272
542,0.0
545,0.0
548,0.0
551,0.0
446,0.0
2,1, 6,15, 1, 2, 0.00,60.00,SummerDesignDay
7,18.622
8,20.56688351855503
9,18.723543488187296
10,20.967469446410032
11,18.624274999051487
12,-11.381621900501887
13,20.56688351855503
14,18.723543488187296
15,20.967469446410032
16,18.624274999051487
17,-11.381621900501887
18,20.64823021869524
19,18.72061284957517
20,20.967469446410032
21,18.61680000310887
22,-20.699128901938614
23,21.15897213824116
24,21.15897213855084
25,20.967469446410032
26,3.6935563996198795e-8
27,21.158972137867156
28,21.158972137993786
29,20.967469446410032
30,1.5104507145036195e-8
31,20.965266003552003
32,18.0
33,20.967469446410032
34,-0.0004674310941559807
35,20.566883519982177
36,18.723543488260958
37,20.96746944811646
38,18.624274999051487
39,-11.38162190881448
40,20.566883519982177
41,18.723543488260958
42,20.96746944811646
43,18.624274999051487
44,-11.38162190881448
45,20.64823022017774
46,18.720612849651896
47,20.96746944811646
48,18.61680000310887
49,-20.69912891695337
50,21.15897213855084
51,21.15897213824116
52,20.96746944811646
53,-3.693427286233231e-8
54,21.15897213944993
55,21.158972139580285
56,20.96746944811646
57,1.554676742898664e-8
58,20.965266005417362
59,18.0
60,20.96746944811646
61,-0.0004674310944500278
62,20.566883519135054
63,18.723543488217235
64,20.96746944710356
65,18.624274999051487
66,-11.381621903880294
67,20.566883519135054
68,18.723543488217235
69,20.96746944710356
70,18.624274999051487
71,-11.381621903880294
72,20.648230219297762
73,18.720612849606354
74,20.96746944710356
75,18.61680000310887
76,-20.69912890804091
77,21.158972137993786
78,21.158972137867156
79,20.96746944710356
80,-1.510310171370932e-8
81,21.158972138892874
82,21.158972139206274
83,20.96746944710356
84,3.737744830312195e-8
85,20.965266004310493
86,18.0
87,20.96746944710356
88,-0.0004674310942755453
89,20.566883520591425
90,18.723543488292403
91,20.967469448844952
92,18.624274999051487
93,-11.381621912363189
94,20.566883520591425
95,18.723543488292403
96,20.967469448844952
97,18.624274999051487
98,-11.381621912363189
99,20.648230220810625
100,18.720612849684645
101,20.967469448844952
102,18.61680000310887
103,-20.699128923363293
104,21.158972139580285
105,21.15897213944993
106,20.967469448844952
107,-1.554544365456323e-8
108,21.158972139206274
109,21.158972138892874
110,20.967469448844952
111,-3.7376075512352e-8
112,20.965266006212826
113,18.0
114,20.967469448844952
115,-0.000467431094575421
116,20.935602160822377
117,85985.17045903084
251,-1.8890693792391122
252,20.935602161685388
253,85985.16992481223
315,-1.8890700206438176
316,20.93560216117267
317,85985.17024045312
379,-1.8890696414567092
380,20.935602162054906
381,85985.16970025742
443,-1.889070290773006
542,23.930161504963124
545,23.930161355449677
548,23.93016144379428
551,23.93016129260432
446,344594.32414852106
2,1, 6,15, 1, 3, 0.00,60.00,SummerDesignDay
7,18.3655
8,20.54260525679751
9,18.47872597614728
10,20.991590730427838
11,18.367774999051484
12,-12.746330779256994
13,20.54260525679751
14,18.47872597614728
15,20.991590730427838
16,18.367774999051484
17,-12.746330779256994
18,20.633860616003574
19,18.476304786703285
20,20.991590730427838
21,18.36030000310887
22,-23.173646766787208
23,21.002516420856633
24,21.002516420853887
25,20.991590730427838
26,-2.907654590190989e-10
27,21.0025164208366
28,21.002516420835462
29,20.991590730427838
30,-1.2029702364454997e-10
31,20.98239272683179
32,18.0
33,20.991590730427838
34,-0.00047013087319515927
35,20.542605256717007
36,18.478725976143274
37,20.991590730339915
38,18.367774999051484
39,-12.746330778792732
40,20.542605256717007
41,18.478725976143274
42,20.991590730339915
43,18.367774999051484
44,-12.746330778792732
45,20.633860615921996
46,18.476304786699117
47,20.991590730339915
48,18.36030000310887
49,-23.17364676597092
50,21.002516420853887
51,21.002516420856633
52,20.991590730339915
53,2.9213823200813227e-10
54,21.002516420902033
55,21.0025164209009
56,20.991590730339915
57,-1.1905498722292185e-10
58,20.982392726694755
59,18.0
60,20.991590730339915
61,-0.0004701308731735575
62,20.5426052567643
63,18.478725976145626
64,20.991590730391565
65,18.367774999051484
66,-12.746330779065474
67,20.5426052567643
68,18.478725976145626
69,20.991590730391565
70,18.367774999051484
71,-12.746330779065474
72,20.633860615969922
73,18.476304786701565
74,20.991590730391565
75,18.36030000310887
76,-23.17364676645049
77,21.002516420835462
78,21.0025164208366
79,20.991590730391565
80,1.216207599040453e-10
81,21.00251642088362
82,21.00251642088087
83,20.991590730391565
84,-2.910759641129579e-10
85,20.982392726775174
86,18.0
87,20.991590730391565
88,-0.0004701308731862341
89,20.542605256683817
90,18.47872597614162
91,20.99159073030367
92,18.367774999051484
93,-12.746330778601346
94,20.542605256683817
95,18.47872597614162
96,20.99159073030367
97,18.367774999051484
98,-12.746330778601346
99,20.63386061588837
100,18.4763047866974
101,20.99159073030367
102,18.36030000310887
103,-23.17364676563446
104,21.0025164209009
105,21.002516420902033
106,20.99159073030367
107,1.2049312199044482e-10
108,21.00251642088087
109,21.00251642088362
110,20.99159073030367
111,2.925631330079337e-10
112,20.982392726638476
113,18.0
114,20.99159073030367
115,-0.00047013087316468593
116,20.99743984293025
117,176938.79251235165
251,49.15943767964039
252,20.9974398428985
253,176938.79250693502
315,49.159437678227526
316,20.997439842917156
317,176938.79251019435
379,49.15943767907902
380,20.997439842885406
381,176938.79250452394
443,49.15943767759558
542,49.159440233654536
545,49.15944023223006
548,49.159440233095026
551,49.15944023159928
446,707895.9393500839
2,1, 6,15, 1, 4, 0.00,60.00,SummerDesignDay
7,18.1375
8,20.51161591421362
9,18.2607316732322
10,20.999742422183616
11,18.139774999051486
12,-13.90021341936546
13,20.511615914163627
14,18.260731672879633
15,20.999742422183616
16,18.139774999051486
17,-13.90021342124805
18,20.61065235228446
19,18.258734849745522
20,20.999742422183616
21,18.13230000310887
22,-25.259362351895
23,21.00012170957921
24,21.00012170957921
25,20.999742422183616
26,6.536995066346724e-13
27,21.000121709578444
28,21.000121709578455
29,20.999742422183616
30,1.3073986609036387e-12
31,20.9973089814278
32,18.0
33,20.999742422183616
34,-0.00047248220396891373
35,20.511615914160163
36,18.260731672879498
37,20.999742422180635
38,18.139774999051486
39,-13.90021342122769
40,20.51161591415952
41,18.26073167287497
42,20.999742422180635
43,18.139774999051486
44,-13.90021342125186
45,20.61065235228125
46,18.258734849745384
47,20.999742422180635
48,18.13230000310887
49,-25.259362351862297
50,21.00012170957921
51,21.00012170957921
52,20.999742422180635
53,6.700417672957093e-13
54,21.00012170958105
55,21.00012170958105
56,20.999742422180635
57,8.824940290249467e-13
58,20.997308981403705
59,18.0
60,20.999742422180635
61,-0.0004724822039651162
62,20.51161591422414
63,18.260731673316442
64,20.999742422182386
65,18.139774999051486
66,-13.900213418906944
67,20.511615914237943
68,18.26073167341378
69,20.999742422182386
70,18.139774999051486
71,-13.900213418387205
72,20.610652352283136
73,18.258734849745466
74,20.999742422182386
75,18.13230000310887
76,-25.259362351881492
77,21.000121709578455
78,21.000121709578444
79,20.999742422182386
80,1.6342504606525754e-14
81,21.00012170958028
82,21.000121709580284
83,20.999742422182386
84,1.062261498381567e-12
85,20.997308981417852
86,18.0
87,20.999742422182386
88,-0.00047248220396734565
89,20.51161591422068
90,18.260731673316307
91,20.999742422179406
92,18.139774999051486
93,-13.900213418886608
94,20.511615914158096
95,18.260731672874915
96,20.999742422179406
97,18.139774999051486
98,-13.900213421243487
99,20.61065235227992
100,18.25873484974533
101,20.999742422179406
102,18.13230000310887
103,-25.25936235184875
104,21.00012170958105
105,21.00012170958105
106,20.999742422179406
107,5.393018388637205e-13
108,21.000121709580284
109,21.00012170958028
110,20.999742422179406
111,3.922196226656405e-13
112,20.997308981393793
113,18.0
114,20.999742422179406
115,-0.0004724822039635532
116,20.999877298375583
117,190154.64053557278
251,52.82097526587605
252,20.999877298374265
253,190154.64054237644
315,52.820975267768944
316,20.99987729837504
317,190154.64052731788
379,52.82097526358426
380,20.999877298373722
381,190154.64053674374
443,52.82097526620552
542,52.82097705537807
545,52.820977057262844
548,52.82097705308762
551,52.82097705570024
446,760622.0695971437
2,1, 6,15, 1, 5, 0.00,60.00,SummerDesignDay
7,17.957
8,20.480469132010693
9,18.087825327854322
10,20.999986283349077
11,17.959274999051484
12,-14.774778548364502
13,20.480469007134975
14,18.087824522306924
15,20.999986283349077
16,17.959274999051484
17,-14.774782766322689
18,20.58608476704271
19,18.086155940459165
20,20.999986283349077
21,17.95180000310887
22,-26.847432861003
23,21.00000688309423
24,21.00000688309423
25,20.999986283349077
26,6.046718674542189e-13
27,21.0000068830942
28,21.000006883094205
29,20.999986283349077
30,9.151790382379982e-13
31,20.999570870604696
32,18.0
33,20.999986283349077
34,-0.00047283875792783367
35,20.480469007134833
36,18.087824522306917
37,20.999986283348967
38,17.959274999051484
39,-14.774782766321849
40,20.48046900540802
41,18.087824511207927
42,20.999986283348967
43,17.959274999051484
44,-14.77478282439512
45,20.586084767042582
46,18.086155940459157
47,20.999986283348967
48,17.95180000310887
49,-26.847432861001707
50,21.00000688309423
51,21.00000688309423
52,20.999986283348967
53,8.007816584582484e-13
54,21.0000068830943
55,21.000006883094304
56,20.999986283348967
57,9.805489770430042e-13
58,20.999570870601065
59,18.0
60,20.999986283348967
61,-0.00047283875792726154
62,20.480469130254008
63,18.087825308687073
64,20.999986283349024
65,17.959274999051484
66,-14.774778658373485
67,20.48046921869251
68,18.087825882912004
69,20.999986283349024
70,17.959274999051484
71,-14.774775647258513
72,20.58608476704265
73,18.08615594045916
74,20.999986283349024
75,17.95180000310887
76,-26.84743286100238
77,21.000006883094205
78,21.0000068830942
79,20.999986283349024
80,4.739320067848659e-13
81,21.00000688309428
82,21.00000688309428
83,20.999986283349024
84,5.55644428173541e-13
85,20.99957087060319
86,18.0
87,20.999986283349024
88,-0.00047283875792759634
89,20.48046913025387
90,18.087825308687066
91,20.999986283348914
92,17.959274999051484
93,-14.774778658372663
94,20.480469005407954
95,18.087824511207923
96,20.999986283348914
97,17.959274999051484
98,-14.774782824394746
99,20.58608476704252
100,18.08615594045915
101,20.999986283348914
102,17.95180000310887
103,-26.84743286100108
104,21.000006883094304
105,21.0000068830943
106,20.999986283348914
107,5.556444180091456e-13
108,21.00000688309428
109,21.00000688309428
110,20.999986283348914
111,8.171241410419175e-13
112,20.999570870599563
113,18.0
114,20.999986283348914
115,-0.00047283875792702475
116,20.999993155542544
117,202193.9801140755
251,56.16500766091431
252,20.999993155542505
253,202193.99301219807
315,56.16501124372673
316,20.999993155542512
317,202193.95874023915
379,56.16500172373675
380,20.99999315554247
381,202193.9804692617
443,56.16500775957728
542,56.165008873547734
545,56.16501245635474
548,56.165002936370946
551,56.16500897220578
446,808776.1196585251
2,1, 6,15, 1, 6, 0.00,60.00,SummerDesignDay
7,17.994999999999997
8,20.482591638549952
9,18.12404545658292
10,20.999999074027517
11,17.997274999051488
12,-14.561367882161694
13,20.48259107932399
14,18.124042028916513
15,20.999999074027517
16,17.997274999051488
17,-14.561385621491826
18,20.58853521269772
19,18.12231587711146
20,20.999999074027517
21,17.989800003108872
22,-26.480272381703
23,21.000000602081776
24,21.000000602081776
25,20.999999074027517
26,4.9027448756859e-13
27,21.00000060208178
28,21.000000602081784
29,20.999999074027517
30,1.1439738045737613e-12
31,20.999889649020044
32,18.0
33,20.999999074027517
34,-0.00047288900871251903
35,20.482591079324003
36,18.124042028916513
37,20.999999074027542
38,17.997274999051488
39,-14.5613856214919
40,20.48259107406035
41,18.124041997573897
42,20.999999074027542
43,17.997274999051488
44,-14.561385782670186
45,20.58853521269774
46,18.12231587711146
47,20.999999074027542
48,17.989800003108872
49,-26.48027238170318
50,21.000000602081776
51,21.000000602081776
52,20.999999074027542
53,8.988365606306476e-13
54,21.000000602081776
55,21.000000602081776
56,20.999999074027542
57,1.0622613900672289e-12
58,20.999889649019345
59,18.0
60,20.999999074027542
61,-0.0004728890087124091
62,20.482591322856422
63,18.124043413373222
64,20.999999074027492
65,17.997274999051488
66,-14.561378577106778
67,20.482591705034622
68,18.12404575365232
69,20.999999074027492
70,17.997274999051488
71,-14.561366467634786
72,20.5885352126977
73,18.122315877111454
74,20.999999074027492
75,17.989800003108872
76,-26.480272381702804
77,21.000000602081784
78,21.00000060208178
79,20.999999074027492
80,2.941646931764287e-13
81,21.000000602081784
82,21.000000602081784
83,20.999999074027492
84,5.556444192796951e-13
85,20.999889649019728
86,18.0
87,20.999999074027492
88,-0.0004728890087124698
89,20.482591322856436
90,18.124043413373222
91,20.999999074027524
92,17.997274999051488
93,-14.561378577106858
94,20.48259107406033
95,18.124041997573897
96,20.999999074027524
97,17.997274999051488
98,-14.561385782670069
99,20.58853521269772
100,18.122315877111458
101,20.999999074027524
102,17.989800003108872
103,-26.48027238170301
104,21.000000602081776
105,21.000000602081776
106,20.999999074027524
107,3.9221959026663024e-13
108,21.000000602081784
109,21.000000602081784
110,20.999999074027524
111,8.334666291313008e-13
112,20.999889649019035
113,18.0
114,20.999999074027524
115,-0.0004728890087123604
116,20.999999491547726
117,201179.27628702496
251,55.883133110601165
252,20.99999949154776
253,201179.33379565878
315,55.8831490852219
316,20.999999491547705
317,201179.24470338254
379,55.883124337367036
380,20.999999491547747
381,201179.3089852843
443,55.88314219345112
542,55.88313386369369
545,55.883149838311176
548,55.88312509046004
551,55.88314294654068
446,804717.1862604201
2,1, 6,15, 1, 7, 0.00,60.00,SummerDesignDay
7,18.3845
8,20.548939841849663
9,18.49687351053391
10,21.00000004491092
11,18.386774999051486
12,-12.665531104778223
13,20.548938950109157
14,18.496868499519703
15,21.00000004491092
16,18.386774999051486
17,-12.665556547002168
18,20.64155487342969
19,18.494452604164657
20,21.00000004491092
21,18.37930000310887
22,-23.047161382400517
23,21.000000000112646
24,21.000000000112642
25,21.00000004491092
26,1.1439738054737338e-13
27,21.00000000011265
28,21.000000000112653
29,21.00000004491092
30,9.478640095397079e-13
31,20.999961089081246
32,18.0
33,21.00000004491092
34,-0.00047290027019999953
35,20.548938950109203
36,18.496868499519707
37,21.00000004491098
38,18.386774999051486
39,-12.665556547002453
40,20.548938942534836
41,18.496868456922712
42,21.00000004491098
43,18.386774999051486
44,-12.665556763333463
45,20.64155487342974
46,18.49445260416466
47,21.00000004491098
48,18.37930000310887
49,-23.047161382401036
50,21.000000000112642
51,21.000000000112646
52,21.00000004491098
53,1.405453531365242e-12
54,21.00000000011264
55,21.00000000011264
56,21.00000004491098
57,5.719869022736458e-13
58,20.99996108908123
59,18.0
60,21.00000004491098
61,-0.0004729002701999966
62,20.54893909688419
63,18.49686929366011
64,21.000000044910912
65,18.386774999051486
66,-12.665552558061695
67,20.5489398420799
68,18.496873510537107
69,21.000000044910912
70,18.386774999051486
71,-12.665531106090516
72,20.641554873429683
73,18.494452604164657
74,21.000000044910912
75,18.37930000310887
76,-23.04716138240045
77,21.000000000112653
78,21.00000000011265
79,21.000000044910912
80,5.393019364776502e-13
81,21.00000000011265
82,21.000000000112646
83,21.000000044910912
84,4.249045559368943e-13
85,20.99996108908121
86,18.0
87,21.000000044910912
88,-0.00047290027019999346
89,20.548939096884233
90,18.49686929366011
91,21.000000044910966
92,18.386774999051486
93,-12.665552558061945
94,20.548938942534825
95,18.496868456922712
96,21.000000044910966
97,18.386774999051486
98,-12.665556763333392
99,20.641554873429726
100,18.49445260416466
101,21.000000044910966
102,18.37930000310887
103,-23.047161382400898
104,21.00000000011264
105,21.00000000011264
106,21.000000044910966
107,8.171241461042629e-13
108,21.000000000112646
109,21.00000000011265
110,21.000000044910966
111,1.0786038728560388e-12
112,20.99996108908119
113,18.0
114,21.000000044910966
115,-0.0004729002701999904
116,21.000000084328093
117,175319.3109673675
251,48.69980867189468
252,21.000000084328153
253,175319.40258700046
315,48.699834121792755
316,21.000000084328086
317,175319.29599089094
379,48.69980451176229
380,21.00000008432814
381,175319.38763398252
443,48.69982996817665
542,48.69980908800808
545,48.69983453790442
548,48.69980492787602
551,48.69983038428852
446,701277.4041770775
2,1, 6,15, 1, 8, 0.00,60.00,SummerDesignDay
7,19.3915
8,20.720785921888922
9,19.46089880907404
10,21.00000008153485
11,19.393774999051487
12,-7.767123306168396
13,20.72078502985152
14,19.460893840555666
15,21.00000008153485
16,19.393774999051487
17,-7.767148468869056
18,20.778123171528044
19,19.456683542819558
20,21.00000008153485
21,19.38630000310887
22,-14.168125011069023
23,20.9999999843278
24,20.999999984327793