Program Version,EnergyPlus, Version 24.2.0-94a887817b, YMD=2026.03.31 11:03
1,5,Environment Title[],Latitude[deg],Longitude[deg],Time Zone[],Elevation[m]
2,8,Day of Simulation[],Month[],Day of Month[],DST Indicator[1=yes 0=no],Hour[],StartMinute[],EndMinute[],DayType
3,5,Cumulative Day of Simulation[],Month[],Day of Month[],DST Indicator[1=yes 0=no],DayType  ! When Daily Report Variables Requested
4,2,Cumulative Days of Simulation[],Month[]  ! When Monthly Report Variables Requested
5,1,Cumulative Days of Simulation[] ! When Run Period Report Variables Requested
6,1,Calendar Year of Simulation[] ! When Annual Report Variables Requested
7,1,Environment,Site Outdoor Air Drybulb Temperature [C] !Hourly
8,1,Z1,Zone Air Temperature [C] !Hourly
143,1,Z2,Zone Air Temperature [C] !Hourly
206,1,Z3,Zone Air Temperature [C] !Hourly
269,1,Z4,Zone Air Temperature [C] !Hourly
332,1,HOT WATER LOOP,Plant Supply Side Outlet Temperature [C] !Hourly
395,1,Z1 RADIATOR,Baseboard Total Heating Rate [W] !Hourly
396,1,Z1 RADIATOR,Baseboard Hot Water Mass Flow Rate [kg/s] !Hourly
399,1,Z2 RADIATOR,Baseboard Total Heating Rate [W] !Hourly
400,1,Z2 RADIATOR,Baseboard Hot Water Mass Flow Rate [kg/s] !Hourly
403,1,Z3 RADIATOR,Baseboard Total Heating Rate [W] !Hourly
404,1,Z3 RADIATOR,Baseboard Hot Water Mass Flow Rate [kg/s] !Hourly
407,1,Z4 RADIATOR,Baseboard Total Heating Rate [W] !Hourly
408,1,Z4 RADIATOR,Baseboard Hot Water Mass Flow Rate [kg/s] !Hourly
409,1,HEAT PUMP,Heat Pump Load Side Heat Transfer Rate [W] !Hourly
423,1,HEAT PUMP,Heat Pump Load Side Inlet Temperature [C] !Hourly
424,1,HEAT PUMP,Heat Pump Load Side Outlet Temperature [C] !Hourly
425,1,HEAT PUMP,Heat Pump Electricity Rate [W] !Hourly
500,1,SUPPLY PUMP,Pump Electricity Rate [W] !Hourly
501,1,SUPPLY PUMP,Pump Fluid Heat Gain Rate [W] !Hourly
502,1,SUPPLY PUMP,Pump Mass Flow Rate [kg/s] !Hourly
530,1,Baseboard Total Heating Rate All Zones,PythonPlugin:OutputVariable [W] !Hourly
End of Data Dictionary
1,WINTER DESIGN DAY IN (MID) UK,  53.35,  -2.28,   0.00,  69.00
2,1, 1,15, 0, 1, 0.00,60.00,WinterDesignDay
7,-3.0
8,20.099947365428427
143,17.99987350425687
206,17.99987350425687
269,20.099947365428427
332,46.032
395,555.0616785237121
396,0.029496
399,374.23604920271305
400,0.004284697265625
403,374.23604920271305
404,0.004284697265625
407,555.0616785237121
408,0.029496
409,1856.5785911460987
423,42.615054873978266
424,46.032
425,714.46051267332
500,1.9672030211043037
501,1.9672030211043037
502,0.12998674
530,1858.5954554528505
2,1, 1,15, 0, 2, 0.00,60.00,WinterDesignDay
7,-3.0
8,20.09995103094379
143,18.000085391121438
206,18.000085391121438
269,20.09995103094379
332,46.032
395,555.0616855057713
396,0.029496
399,374.4032536086431
400,0.0042882978515625
403,374.4032536086431
404,0.0042882978515625
407,555.0616855057713
408,0.029496
409,1856.8280526516319
423,42.61459575187079
424,46.032
425,714.5565120541087
500,1.9672026566053589
501,1.9672026566053589
502,0.12998674
530,1858.9298782288288
2,1, 1,15, 0, 3, 0.00,60.00,WinterDesignDay
7,-3.0
8,20.09994744538531
143,18.0003584372775
206,18.0003584372775
269,20.09994744538531
332,46.032
395,555.0616069565128
396,0.029496
399,374.4004223251951
400,0.0042882978515625
403,374.4004223251951
404,0.0042882978515625
407,555.0616069565128
408,0.029496
409,1856.8657993232482
423,42.614526280906176
424,46.032
425,714.5710379710201
500,1.9672026014521191
501,1.9672026014521191
502,0.12998674
530,1858.9240585634157
2,1, 1,15, 0, 4, 0.00,60.00,WinterDesignDay
7,-3.0
8,20.099947131497157
143,17.999873247350397
206,17.999873247350397
269,20.099947131497157
332,46.032
395,555.0616836186946
396,0.029496
399,374.236052696016
400,0.004284697265625
403,374.236052696016
404,0.004284697265625
407,555.0616836186946
408,0.029496
409,1856.5786083617984
423,42.61505484229358
424,46.032
425,714.4605192983763
500,1.967203021079149
501,1.967203021079149
502,0.12998674
530,1858.5954726294212
2,1, 1,15, 0, 5, 0.00,60.00,WinterDesignDay
7,-3.0
8,20.099950812741273
143,18.000085151023846
206,18.000085151023846
269,20.099950812741273
332,46.032
395,555.0616902582631
396,0.029496
399,374.4032568654592
400,0.0042882978515625
403,374.4032568654592
404,0.0042882978515625
407,555.0616902582631
408,0.029496
409,1856.828068705936
423,42.6145957223236
424,46.032
425,714.5565182322292
500,1.9672026565819012
501,1.9672026565819012
502,0.12998674
530,1858.9298942474443
2,1, 1,15, 0, 6, 0.00,60.00,WinterDesignDay
7,-3.0
8,20.099947241856967
143,18.00035821354017
206,18.00035821354017
269,20.099947241856967
332,46.032
395,555.061611389465
396,0.029496
399,374.40042536890275
400,0.0042882978515625
403,374.40042536890275
404,0.0042882978515625
407,555.061611389465
408,0.029496
409,1856.8658143079774
423,42.61452625332749
424,46.032
425,714.5710437375401
500,1.9672026014302242
501,1.9672026014302242
502,0.12998674
530,1858.9240735167355
2,1, 1,15, 0, 7, 0.00,60.00,WinterDesignDay
7,-3.0
8,20.09994694164953
143,17.999873038849913
206,17.999873038849913
269,20.09994694164953
332,46.032
395,555.0616877535376
396,0.029496
399,374.236055531116
400,0.004284697265625
403,374.236055531116
404,0.004284697265625
407,555.0616877535376
408,0.029496
409,1856.5786223334437
423,42.61505481657942
424,46.032
425,714.4605246750347
500,1.9672030210587346
501,1.9672030210587346
502,0.12998674
530,1858.5954865693072
2,1, 1,15, 0, 8, 0.00,60.00,WinterDesignDay
7,-3.0
8,20.099950635657493
143,18.000084956165214
206,18.000084956165214
269,20.099950635657493
332,46.032
395,555.0616941151765
396,0.029496
399,374.4032595086292
400,0.0042882978515625
403,374.4032595086292
404,0.0042882978515625
407,555.0616941151765
408,0.029496
409,1856.8280817350656
423,42.614595698344104
424,46.032
425,714.5565232461827
500,1.9672026565628637
501,1.9672026565628637
502,0.12998674
530,1858.9299072476117
2,1, 1,15, 0, 9, 0.00,60.00,WinterDesignDay
7,-3.0
8,20.099947076681833
143,18.00035803195927
206,18.00035803195927
269,20.099947076681833
332,46.032
395,555.0616149870656
396,0.029496
399,374.40042783911775
400,0.0042882978515625
403,374.40042783911775
404,0.0042882978515625
407,555.0616149870656
408,0.029496
409,1856.8658264691014
423,42.614526230945515
424,46.032
425,714.571048417462
500,1.9672026014124548
501,1.9672026014124548
502,0.12998674
530,1858.9240856523666
2,1, 1,15, 0,10, 0.00,60.00,WinterDesignDay
7,-3.0
8,20.09994678757794
143,17.999872869635336
206,17.999872869635336
269,20.09994678757794
332,46.032
395,555.061691109192
396,0.029496
399,374.23605783202504
400,0.004284697265625
403,374.23605783202504
404,0.004284697265625
407,555.061691109192
408,0.029496
409,1856.5786336723438
423,42.61505479571072
424,46.032
425,714.4605290385432
500,1.9672030210421667
501,1.9672030210421667
502,0.12998674
530,1858.595497882434
2,1, 1,15, 0,11, 0.00,60.00,WinterDesignDay
7,-3.0
8,20.099950491945396
143,18.000084798022755
206,18.000084798022755
269,20.099950491945396
332,46.032
395,555.061697245253
396,0.029496
399,374.4032616537632
400,0.0042882978515625
403,374.4032616537632
404,0.0042882978515625
407,555.061697245253
408,0.029496
409,1856.8280923089922
423,42.61459567888329
424,46.032
425,714.556527315309
500,1.9672026565474137
501,1.9672026565474137
502,0.12998674
530,1858.9299177980322
2,1, 1,15, 0,12, 0.00,60.00,WinterDesignDay
7,-3.0
8,20.09994694263412
143,18.000357884593278
206,18.000357884593278
269,20.09994694263412
332,46.032
395,555.0616179066917
396,0.029496
399,374.4004298438767
400,0.0042882978515625
403,374.4004298438767
404,0.0042882978515625
407,555.0616179066917
408,0.029496
409,1856.865836338559
423,42.61452621278124
424,46.032
425,714.57105221549
500,1.9672026013980342
501,1.9672026013980342
502,0.12998674
530,1858.924095501137
2,1, 1,15, 0,13, 0.00,60.00,WinterDesignDay
7,-3.0
8,20.099946662540074
143,17.999872732305587
206,17.999872732305587
269,20.099946662540074
332,46.032
395,555.0616938324883
396,0.029496
399,374.2360596993773
400,0.004284697265625
403,374.2360596993773
404,0.004284697265625
407,555.0616938324883
408,0.029496
409,1856.5786428745573
423,42.61505477877448
424,46.032
425,714.4605325797982
500,1.9672030210287208
501,1.9672030210287208
502,0.12998674
530,1858.595507063731
2,1, 1,15, 0,14, 0.00,60.00,WinterDesignDay
7,-3.0
8,20.099950375313554
143,18.000084669678643
206,18.000084669678643
269,20.099950375313554
332,46.032
395,555.0616997855104
396,0.029496
399,374.4032633946948
400,0.0042882978515625
403,374.4032633946948
404,0.0042882978515625
407,555.0616997855104
408,0.029496
409,1856.8281008904455
423,42.61459566308953
424,46.032
425,714.5565306176791
500,1.967202656534875
501,1.967202656534875
502,0.12998674
530,1858.9299263604103
2,1, 1,15, 0,15, 0.00,60.00,WinterDesignDay
7,-3.0
8,20.09994683384503
143,18.000357764994966
206,18.000357764994966
269,20.09994683384503
332,46.032
395,555.061620276171
396,0.029496
399,374.40043147088534
400,0.0042882978515625
403,374.40043147088534
404,0.0042882978515625
407,555.061620276171
408,0.029496
409,1856.8658443483246
423,42.614526198039655
424,46.032
425,714.5710552978596
500,1.9672026013863309
501,1.9672026013863309
502,0.12998674
530,1858.9241034941126
2,1, 1,15, 0,16, 0.00,60.00,WinterDesignDay
7,-3.0
8,20.099946561063415
143,17.99987262085224
206,17.99987262085224
269,20.099946561063415
332,46.032
395,555.06169604263
396,0.029496
399,374.23606121487205
400,0.004284697265625
403,374.23606121487205
404,0.004284697265625
407,555.06169604263
408,0.029496
409,1856.5786503428035
423,42.61505476502953
424,46.032
425,714.4605354537766
500,1.9672030210178089
501,1.9672030210178089
502,0.12998674
530,1858.5955145150042
2,1, 1,15, 0,17, 0.00,60.00,WinterDesignDay
7,-3.0
8,20.099950280659705
143,18.000084565517444
206,18.000084565517444
269,20.099950280659705
332,46.032
395,555.0617018470887
396,0.029496
399,374.40326480759455
400,0.0042882978515625
403,374.40326480759455
404,0.0042882978515625
407,555.0617018470887
408,0.029496
409,1856.828107854886
423,42.61459565027181
424,46.032
425,714.5565332977799
500,1.967202656524699
501,1.967202656524699
502,0.12998674
530,1858.9299333093663
2,1, 1,15, 0,18, 0.00,60.00,WinterDesignDay
7,-3.0
8,20.099946745556714
143,18.000357667931254
206,18.000357667931254
269,20.099946745556714
332,46.032
395,555.0616221991363
396,0.029496
399,374.40043279133357
400,0.0042882978515625
403,374.40043279133357
404,0.0042882978515625
407,555.0616221991363
408,0.029496
409,1856.8658508487763
423,42.61452618607588
424,46.032
425,714.5710577994051
500,1.9672026013768331
501,1.9672026013768331
502,0.12998674
530,1858.9241099809396
2,1, 1,15, 0,19, 0.00,60.00,WinterDesignDay
7,-3.0
8,20.099946478709732
143,17.999872530398846
206,17.999872530398846
269,20.099946478709732
332,46.032
395,555.0616978362772
396,0.029496
399,374.23606244481914
400,0.004284697265625
403,374.23606244481914
404,0.004284697265625
407,555.0616978362772
408,0.029496
409,1856.5786564037696
423,42.6150547538746
424,46.032
425,714.4605377861967
500,1.9672030210089528
501,1.9672030210089528
502,0.12998674
530,1858.5955205621926
2,1, 1,15, 0,20, 0.00,60.00,WinterDesignDay
7,-3.0
8,20.09995020384289
143,18.000084480982565
206,18.000084480982565
269,20.09995020384289
332,46.032
395,555.0617035201712
396,0.029496
399,374.4032659542733
400,0.0042882978515625
403,374.4032659542733
404,0.0042882978515625
407,555.0617035201712
408,0.029496
409,1856.8281135069683
423,42.61459563986942
424,46.032
425,714.5565354728506
500,1.9672026565164407
501,1.9672026565164407
502,0.12998674
530,1858.9299389488888
2,1, 1,15, 0,21, 0.00,60.00,WinterDesignDay
7,-3.0
8,20.09994667390535
143,18.00035758915697
206,18.00035758915697
269,20.09994667390535
332,46.032
395,555.0616237597371
396,0.029496
399,374.4004338629752
400,0.0042882978515625
403,374.4004338629752
404,0.0042882978515625
407,555.0616237597371
408,0.029496
409,1856.865856124321
423,42.61452617636649
424,46.032
425,714.5710598295742
500,1.9672026013691246
501,1.9672026013691246
502,0.12998674
530,1858.924115245425
2,1, 1,15, 0,22, 0.00,60.00,WinterDesignDay
7,-3.0
8,20.099946411874043
143,17.999872456989852
206,17.999872456989852
269,20.099946411874043
332,46.032
395,555.0616992919422
396,0.029496
399,374.23606344300595
400,0.004284697265625
403,374.23606344300595
404,0.004284697265625
407,555.0616992919422
408,0.029496
409,1856.5786613226549
423,42.61505474482163
424,46.032
425,714.4605396791137
500,1.9672030210017657
501,1.9672030210017657
502,0.12998674
530,1858.5955254698965
2,1, 1,15, 0,23, 0.00,60.00,WinterDesignDay
7,-3.0
8,20.099950141500273
143,18.00008441237746
206,18.00008441237746
269,20.099950141500273
332,46.032
395,555.0617048780018
396,0.029496
399,374.4032668848735
400,0.0042882978515625
403,374.4032668848735
404,0.0042882978515625
407,555.0617048780018
408,0.029496
409,1856.8281180940273
423,42.61459563142715
424,46.032
425,714.5565372380721
500,1.967202656509738
501,1.967202656509738
502,0.12998674
530,1858.9299435257508
2,1, 1,15, 0,24, 0.00,60.00,WinterDesignDay
7,-3.0
8,20.099946615755012
143,18.000357525227425
206,18.000357525227425
269,20.099946615755012
332,46.032
395,555.0616250262811
396,0.029496
399,374.40043473267116
400,0.0042882978515625
403,374.40043473267116
404,0.0042882978515625
407,555.0616250262811
408,0.029496
409,1856.865860405776
423,42.61452616848667
424,46.032
425,714.5710614771914
500,1.9672026013628687
501,1.9672026013628687
502,0.12998674
530,1858.9241195179047
End of Data
 Number of Records Written=         528
