Program Version,EnergyPlus, Version 24.2.0-94a887817b, YMD=2026.01.14 16:17
1,5,Environment Title[],Latitude[deg],Longitude[deg],Time Zone[],Elevation[m]
2,8,Day of Simulation[],Month[],Day of Month[],DST Indicator[1=yes 0=no],Hour[],StartMinute[],EndMinute[],DayType
3,5,Cumulative Day of Simulation[],Month[],Day of Month[],DST Indicator[1=yes 0=no],DayType  ! When Daily Report Variables Requested
4,2,Cumulative Days of Simulation[],Month[]  ! When Monthly Report Variables Requested
5,1,Cumulative Days of Simulation[] ! When Run Period Report Variables Requested
6,1,Calendar Year of Simulation[] ! When Annual Report Variables Requested
7,1,Environment,Site Outdoor Air Drybulb Temperature [C] !Hourly
8,1,Z1,Zone Operative Temperature [C] !Hourly
9,1,Z2,Zone Operative Temperature [C] !Hourly
10,1,Z3,Zone Operative Temperature [C] !Hourly
11,1,Z4,Zone Operative Temperature [C] !Hourly
12,1,Z1,Zone Air Temperature [C] !Hourly
147,1,Z2,Zone Air Temperature [C] !Hourly
210,1,Z3,Zone Air Temperature [C] !Hourly
273,1,Z4,Zone Air Temperature [C] !Hourly
336,1,HOT WATER LOOP,Plant Supply Side Outlet Temperature [C] !Hourly
399,1,Z1 RADIATOR,Baseboard Total Heating Rate [W] !Hourly
400,1,Z1 RADIATOR,Baseboard Hot Water Mass Flow Rate [kg/s] !Hourly
403,1,Z2 RADIATOR,Baseboard Total Heating Rate [W] !Hourly
404,1,Z2 RADIATOR,Baseboard Hot Water Mass Flow Rate [kg/s] !Hourly
407,1,Z3 RADIATOR,Baseboard Total Heating Rate [W] !Hourly
408,1,Z3 RADIATOR,Baseboard Hot Water Mass Flow Rate [kg/s] !Hourly
411,1,Z4 RADIATOR,Baseboard Total Heating Rate [W] !Hourly
412,1,Z4 RADIATOR,Baseboard Hot Water Mass Flow Rate [kg/s] !Hourly
413,1,HEAT PUMP,Heat Pump Load Side Heat Transfer Rate [W] !Hourly
427,1,HEAT PUMP,Heat Pump Load Side Inlet Temperature [C] !Hourly
428,1,HEAT PUMP,Heat Pump Electricity Rate [W] !Hourly
503,1,SUPPLY PUMP,Pump Electricity Rate [W] !Hourly
504,1,SUPPLY PUMP,Pump Fluid Heat Gain Rate [W] !Hourly
505,1,SUPPLY PUMP,Pump Mass Flow Rate [kg/s] !Hourly
533,1,Baseboard Total Heating Rate All Zones,PythonPlugin:OutputVariable [W] !Hourly
End of Data Dictionary
1,WINTER DESIGN DAY IN (MID) UK,  53.35,  -2.28,   0.00,  69.00
2,1, 1,15, 0, 1, 0.00,60.00,WinterDesignDay
7,-3.0
8,18.594301219089495
9,18.594301219089495
10,17.99947584494381
11,17.99947584494381
12,20.510737514202894
147,20.510737514202894
210,19.727416657838912
273,19.727416657838912
336,51.27
399,479.53452334930205
400,0.029496
403,479.53452334930205
404,0.029496
407,437.08673499036473
408,0.011118609375000001
411,437.08673499036473
412,0.011118609375000001
413,1830.8641022465383
427,47.90084880599074
428,792.0189241652865
503,1.9716397178728617
504,1.9716397178728617
505,0.12998674
533,1833.2425166793337
2,1, 1,15, 0, 2, 0.00,60.00,WinterDesignDay
7,-3.0
8,18.594300778671112
9,18.594300778671112
10,17.999475420213717
11,17.999475420213717
12,20.51073710647367
147,20.51073710647367
210,19.72741627012311
273,19.72741627012311
336,51.27
399,479.53452980793963
400,0.029496
403,479.53452980793963
404,0.029496
407,437.08674044919854
408,0.011118609375000001
411,437.08674044919854
412,0.011118609375000001
413,1830.8641261252387
427,47.90084876204922
428,792.0189344950444
503,1.9716397178343148
504,1.9716397178343148
505,0.12998674
533,1833.2425405142765
2,1, 1,15, 0, 3, 0.00,60.00,WinterDesignDay
7,-3.0
8,18.594300365489474
9,18.594300365489474
10,17.999475021684546
11,17.999475021684546
12,20.510736723930968
147,20.510736723930968
210,19.727415906297615
273,19.727415906297615
336,51.27
399,479.53453586756325
400,0.029496
403,479.53453586756325
404,0.029496
407,437.08674557165716
408,0.011118609375000001
411,437.08674557165716
412,0.011118609375000001
413,1830.8641485304445
427,47.90084872081922
428,792.0189441873787
503,1.971639717798146
504,1.971639717798146
505,0.12998674
533,1833.2425628784408
2,1, 1,15, 0, 4, 0.00,60.00,WinterDesignDay
7,-3.0
8,18.594299977847665
9,18.594299977847665
10,17.999474647734623
11,17.999474647734623
12,20.510736365008025
147,20.510736365008025
210,19.727415564886524
273,19.727415564886524
336,51.27
399,479.53454155299755
400,0.029496
403,479.53454155299755
404,0.029496
407,437.08675037852277
408,0.011118609375000001
411,437.08675037852277
412,0.011118609375000001
413,1830.8641695535387
427,47.900848682132576
428,792.0189532818213
503,1.9716397177642087
504,1.9716397177642087
505,0.12998674
533,1833.2425838630406
2,1, 1,15, 0, 5, 0.00,60.00,WinterDesignDay
7,-3.0
8,18.594299614155624
9,18.594299614155624
10,17.99947429684285
11,17.99947429684285
12,20.5107360282365
147,20.5107360282365
210,19.727415244505266
273,19.727415244505266
336,51.27
399,479.5345468875089
400,0.029496
403,479.5345468875089
404,0.029496
407,437.0867548892896
408,0.011118609375000001
411,437.0867548892896
412,0.011118609375000001
413,1830.8641892802002
427,47.90084864583163
428,792.0189618154362
503,1.9716397177323641
504,1.9716397177323641
505,0.12998674
533,1833.2426035535968
2,1, 1,15, 0, 6, 0.00,60.00,WinterDesignDay
7,-3.0
8,18.59429927292343
9,18.59429927292343
10,17.99947396758232
11,17.99947396758232
12,20.510735712240358
147,20.510735712240358
210,19.72741494385472
273,19.72741494385472
336,51.27
399,479.5345518929
400,0.029496
403,479.5345518929
404,0.029496
407,437.086759122249
408,0.011118609375000001
411,437.086759122249
412,0.011118609375000001
413,1830.8642077907693
427,47.900848611768524
428,792.0189698229782
503,1.971639717702483
504,1.971639717702483
505,0.12998674
533,1833.2426220302982
2,1, 1,15, 0, 7, 0.00,60.00,WinterDesignDay
7,-3.0
8,18.594298952754883
9,18.594298952754883
10,17.99947365861488
11,17.99947365861488
12,20.510735415729943
147,20.510735415729943
210,19.727414661716296
273,19.727414661716296
336,51.27
399,479.53455658960564
400,0.029496
403,479.53455658960564
404,0.029496
407,437.0867630945599
408,0.011118609375000001
411,437.0867630945599
412,0.011118609375000001
413,1830.8642251605672
427,47.90084857980467
428,792.0189773370304
503,1.9716397176744431
504,1.9716397176744431
505,0.12998674
533,1833.242639368331
2,1, 1,15, 0, 8, 0.00,60.00,WinterDesignDay
7,-3.0
8,18.59429865234153
9,18.59429865234153
10,17.99947336868558
11,17.99947336868558
12,20.51073513749651
147,20.51073513749651
210,19.727414396946994
273,19.727414396946994
336,51.27
399,479.53456099677715
400,0.029496
403,479.53456099677715
404,0.029496
407,437.0867668223165
408,0.011118609375000001
411,437.0867668223165
412,0.011118609375000001
413,1830.864241460226
427,47.900848549810085
428,792.018984388148
503,1.9716397176481304
504,1.9716397176481304
505,0.12998674
533,1833.242655638187
2,1, 1,15, 0, 9, 0.00,60.00,WinterDesignDay
7,-3.0
8,18.594298370456922
9,18.594298370456922
10,17.999473096617674
11,17.999473096617674
12,20.51073487640693
147,20.51073487640693
210,19.727414148474818
273,19.727414148474818
336,51.27
399,479.53456513236716
400,0.029496
403,479.53456513236716
404,0.029496
407,437.08677032061416
408,0.011118609375000001
411,437.08677032061416
412,0.011118609375000001
413,1830.8642567559532
427,47.90084852166294
428,792.0189910049719
503,1.9716397176234386
504,1.9716397176234386
505,0.12998674
533,1833.2426709059628
2,1, 1,15, 0,10, 0.00,60.00,WinterDesignDay
7,-3.0
8,18.59429810595142
9,18.59429810595142
10,17.99947284130746
11,17.99947284130746
12,20.51073463139889
147,20.51073463139889
210,19.727413915294193
273,19.727413915294193
336,51.27
399,479.53456901320635
400,0.029496
403,479.53456901320635
404,0.029496
407,437.08677360361077
408,0.011118609375000001
411,437.08677360361077
412,0.011118609375000001
413,1830.8642711098535
427,47.90084849524892
428,792.0189972143683
503,1.9716397176002673
504,1.9716397176002673
505,0.12998674
533,1833.2426852336343
2,1, 1,15, 0,11, 0.00,60.00,WinterDesignDay
7,-3.0
8,18.59429785774755
9,18.59429785774755
10,17.999472601719397
11,17.999472601719397
12,20.510734401476647
147,20.510734401476647
210,19.727413696461518
273,19.727413696461518
336,51.27
399,479.534572655072
400,0.029496
403,479.534572655072
404,0.029496
407,437.08677668459177
408,0.011118609375000001
411,437.08677668459177
412,0.011118609375000001
413,1830.8642845801496
427,47.90084847046092
428,792.0190030415234
503,1.971639717578522
504,1.971639717578522
505,0.12998674
533,1833.2426986793275
2,1, 1,15, 0,12, 0.00,60.00,WinterDesignDay
7,-3.0
8,18.59429762483516
9,18.59429762483516
10,17.99947237688207
11,17.99947237688207
12,20.510734185706582
147,20.510734185706582
210,19.727413491091472
273,19.727413491091472
336,51.27
399,479.53457607275493
400,0.029496
403,479.53457607275493
404,0.029496
407,437.08677957602276
408,0.011118609375000001
411,437.08677957602276
412,0.011118609375000001
413,1830.8642972214595
427,47.90084844719841
428,792.0190085100653
503,1.9716397175581157
504,1.9716397175581157
505,0.12998674
533,1833.2427112975552
2,1, 1,15, 0,13, 0.00,60.00,WinterDesignDay
7,-3.0
8,18.594297406267657
9,18.594297406267657
10,17.999472165884207
11,17.999472165884207
12,20.510733983213655
147,20.510733983213655
210,19.727413298353408
273,19.727413298353408
336,51.27
399,479.5345792801204
400,0.029496
403,479.5345792801204
404,0.029496
407,437.08678228959855
408,0.011118609375000001
411,437.08678228959855
412,0.011118609375000001
413,1830.8643090849969
427,47.90084842536717
428,792.0190136421479
503,1.9716397175389644
504,1.9716397175389644
505,0.12998674
533,1833.2427231394379
2,1, 1,15, 0,14, 0.00,60.00,WinterDesignDay
7,-3.0
8,18.594297201157463
9,18.594297201157463
10,17.999471967871095
11,17.999471967871095
12,20.510733793177373
147,20.510733793177373
210,19.727413117468117
273,19.727413117468117
336,51.27
399,479.5345822901658
400,0.029496
403,479.5345822901658
404,0.029496
407,437.08678483629143
408,0.011118609375000001
411,437.08678483629143
412,0.011118609375000001
413,1830.8643202187868
427,47.900848404878786
428,792.0190184585471
503,1.9716397175209912
504,1.9716397175209912
505,0.12998674
533,1833.2427342529145
2,1, 1,15, 0,15, 0.00,60.00,WinterDesignDay
7,-3.0
8,18.594297008671806
9,18.594297008671806
10,17.999471782041255
11,17.999471782041255
12,20.510733614827842
147,20.510733614827842
210,19.72741294770481
273,19.72741294770481
336,51.27
399,479.53458511508626
400,0.029496
403,479.53458511508626
404,0.029496
407,437.0867872263921
408,0.011118609375000001
411,437.0867872263921
412,0.011118609375000001
413,1830.8643306678925
427,47.90084838565038
428,792.0190229787568
503,1.9716397175041234
504,1.9716397175041234
505,0.12998674
533,1833.2427446829565
2,1, 1,15, 0,16, 0.00,60.00,WinterDesignDay
7,-3.0
8,18.594296828029808
9,18.594296828029808
10,17.99947160764315
11,17.99947160764315
12,20.51073344744302
147,20.51073344744302
210,19.72741278837817
273,19.72741278837817
336,51.27
399,479.53458776632203
400,0.029496
403,479.53458776632203
404,0.029496
407,437.0867894695503
408,0.011118609375000001
411,437.0867894695503
412,0.011118609375000001
413,1830.8643404745656
427,47.90084836760417
428,792.0190272210544
503,1.9716397174882925
504,1.9716397174882925
505,0.12998674
533,1833.2427544717448
2,1, 1,15, 0,17, 0.00,60.00,WinterDesignDay
7,-3.0
8,18.594296658499886
9,18.594296658499886
10,17.999471443971483
11,17.999471443971483
12,20.51073329034632
147,20.51073329034632
210,19.727412638845014
273,19.727412638845014
336,51.27
399,479.53459025459296
400,0.029496
403,479.53459025459296
404,0.029496
407,437.0867915748209
408,0.011118609375000001
411,437.0867915748209
412,0.011118609375000001
413,1830.8643496784289
427,47.900848350667246
428,792.0190312025809
503,1.9716397174734348
504,1.9716397174734348
505,0.12998674
533,1833.2427636588277
2,1, 1,15, 0,18, 0.00,60.00,WinterDesignDay
7,-3.0
8,18.594296499395707
9,18.594296499395707
10,17.99947129036422
11,17.99947129036422
12,20.510733142903025
147,20.510733142903025
210,19.727412498501515
273,19.727412498501515
336,51.27
399,479.53459258995326
400,0.029496
403,479.53459258995326
404,0.029496
407,437.08679355070444
408,0.011118609375000001
411,437.08679355070444
412,0.011118609375000001
413,1830.8643583166618
427,47.90084833477118
428,792.0190349394197
503,1.97163971745949
504,1.97163971745949
505,0.12998674
533,1833.2427722813154
2,1, 1,15, 0,19, 0.00,60.00,WinterDesignDay
7,-3.0
8,18.59429635007332
9,18.59429635007332
10,17.999471146200616
11,17.999471146200616
12,20.51073300451756
147,20.51073300451756
210,19.7274123667814
273,19.7274123667814
336,51.27
399,479.53459478183595
400,0.029496
403,479.53459478183595
404,0.029496
407,437.0867954051762
408,0.011118609375000001
411,437.0867954051762
412,0.011118609375000001
413,1830.8643664241458
427,47.90084831985182
428,792.0190384466603
503,1.9716397174464022
504,1.9716397174464022
505,0.12998674
533,1833.2427803740243
2,1, 1,15, 0,20, 0.00,60.00,WinterDesignDay
7,-3.0
8,18.59429620992863
9,18.59429620992863
10,17.99947101089884
11,17.99947101089884
12,20.510732874631138
147,20.510732874631138
210,19.72741224315384
273,19.72741224315384
336,51.27
399,479.53459683909375
400,0.029496
403,479.53459683909375
404,0.029496
407,437.0867971457112
408,0.011118609375000001
411,437.0867971457112
412,0.011118609375000001
413,1830.8643740335933
427,47.90084830584894
428,792.0190417384536
503,1.9716397174341185
504,1.9716397174341185
505,0.12998674
533,1833.2427879696097
2,1, 1,15, 0,21, 0.00,60.00,WinterDesignDay
7,-3.0
8,18.594296078395374
9,18.594296078395374
10,17.999470883912984
11,17.999470883912984
12,20.51073275271987
147,20.51073275271987
210,19.727412127120765
273,19.727412127120765
336,51.27
399,479.53459877002757
400,0.029496
403,479.53459877002757
404,0.029496
407,437.0867987793217
408,0.011118609375000001
411,437.0867987793217
412,0.011118609375000001
413,1830.8643811756913
427,47.90084829270606
428,792.019044828075
503,1.9716397174225888
504,1.9716397174225888
505,0.12998674
533,1833.2427950986985
2,1, 1,15, 0,22, 0.00,60.00,WinterDesignDay
7,-3.0
8,18.59429595494275
9,18.59429595494275
10,17.99947076473066
11,17.99947076473066
12,20.51073263829265
147,20.51073263829265
210,19.72741201821468
273,19.72741201821468
336,51.27
399,479.5346005824167
400,0.029496
403,479.5346005824167
404,0.029496
407,437.08680031258905
408,0.011118609375000001
411,437.08680031258905
412,0.011118609375000001
413,1830.8643878792118
427,47.90084828037027
428,792.0190477279707
503,1.9716397174117675
504,1.9716397174117675
505,0.12998674
533,1833.2428017900113
2,1, 1,15, 0,23, 0.00,60.00,WinterDesignDay
7,-3.0
8,18.594295839072856
9,18.594295839072856
10,17.999470652870805
11,17.999470652870805
12,20.51073253088877
147,20.51073253088877
210,19.727411915996594
273,19.727411915996594
336,51.27
399,479.5346022835595
400,0.029496
403,479.5346022835595
404,0.029496
407,437.0868017516931
408,0.011118609375000001
411,437.0868017516931
412,0.011118609375000001
413,1830.8643941711632
427,47.90084826879183
428,792.0190504498247
503,1.9716397174016105
504,1.9716397174016105
505,0.12998674
533,1833.2428080705051
2,1, 1,15, 0,24, 0.00,60.00,WinterDesignDay
7,-3.0
8,18.59429573031838
9,18.59429573031838
10,17.999470547882222
11,17.999470547882222
12,20.510732430075837
147,20.510732430075837
210,19.727411820054712
273,19.727411820054712
336,51.27
399,479.5346038803048
400,0.029496
403,479.5346038803048
404,0.029496
407,437.0868031024328
408,0.011118609375000001
411,437.0868031024328
412,0.011118609375000001
413,1830.8644000768825
427,47.900848257924146
428,792.0190530045971
503,1.9716397173920768
504,1.9716397173920768
505,0.12998674
533,1833.2428139654753
End of Data
 Number of Records Written=         600
