Program Version,EnergyPlus, Version 24.2.0-94a887817b, YMD=2025.10.07 15:26
1,5,Environment Title[],Latitude[deg],Longitude[deg],Time Zone[],Elevation[m]
2,8,Day of Simulation[],Month[],Day of Month[],DST Indicator[1=yes 0=no],Hour[],StartMinute[],EndMinute[],DayType
3,5,Cumulative Day of Simulation[],Month[],Day of Month[],DST Indicator[1=yes 0=no],DayType  ! When Daily Report Variables Requested
4,2,Cumulative Days of Simulation[],Month[]  ! When Monthly Report Variables Requested
5,1,Cumulative Days of Simulation[] ! When Run Period Report Variables Requested
6,1,Calendar Year of Simulation[] ! When Annual Report Variables Requested
7,1,Environment,Site Outdoor Air Drybulb Temperature [C] !Hourly
8,1,EXT SURFACE EAST SOUTH,Surface Inside Face Temperature [C] !Hourly
9,1,EXT SURFACE EAST SOUTH,Surface Outside Face Temperature [C] !Hourly
10,1,EXT SURFACE EAST SOUTH,Surface Inside Face Adjacent Air Temperature [C] !Hourly
11,1,EXT SURFACE EAST SOUTH,Surface Outside Face Outdoor Air Drybulb Temperature [C] !Hourly
12,1,EXT SURFACE EAST SOUTH,Surface Average Face Conduction Heat Transfer Rate [W] !Hourly
13,1,EXT SURFACE SOUTH EAST,Surface Inside Face Temperature [C] !Hourly
14,1,EXT SURFACE SOUTH EAST,Surface Outside Face Temperature [C] !Hourly
15,1,EXT SURFACE SOUTH EAST,Surface Inside Face Adjacent Air Temperature [C] !Hourly
16,1,EXT SURFACE SOUTH EAST,Surface Outside Face Outdoor Air Drybulb Temperature [C] !Hourly
17,1,EXT SURFACE SOUTH EAST,Surface Average Face Conduction Heat Transfer Rate [W] !Hourly
18,1,PZ1Z2,Surface Inside Face Temperature [C] !Hourly
19,1,PZ1Z2,Surface Outside Face Temperature [C] !Hourly
20,1,PZ1Z2,Surface Inside Face Adjacent Air Temperature [C] !Hourly
21,1,PZ1Z2,Surface Average Face Conduction Heat Transfer Rate [W] !Hourly
22,1,PZ1Z3,Surface Inside Face Temperature [C] !Hourly
23,1,PZ1Z3,Surface Outside Face Temperature [C] !Hourly
24,1,PZ1Z3,Surface Inside Face Adjacent Air Temperature [C] !Hourly
25,1,PZ1Z3,Surface Average Face Conduction Heat Transfer Rate [W] !Hourly
26,1,EXT SURFACE FLOOR SE,Surface Inside Face Temperature [C] !Hourly
27,1,EXT SURFACE FLOOR SE,Surface Outside Face Temperature [C] !Hourly
28,1,EXT SURFACE FLOOR SE,Surface Inside Face Adjacent Air Temperature [C] !Hourly
29,1,EXT SURFACE FLOOR SE,Surface Average Face Conduction Heat Transfer Rate [W] !Hourly
30,1,EXT SURFACE ROOF SE,Surface Inside Face Temperature [C] !Hourly
31,1,EXT SURFACE ROOF SE,Surface Outside Face Temperature [C] !Hourly
32,1,EXT SURFACE ROOF SE,Surface Inside Face Adjacent Air Temperature [C] !Hourly
33,1,EXT SURFACE ROOF SE,Surface Outside Face Outdoor Air Drybulb Temperature [C] !Hourly
34,1,EXT SURFACE ROOF SE,Surface Average Face Conduction Heat Transfer Rate [W] !Hourly
35,1,EXT SURFACE SOUTH WEST,Surface Inside Face Temperature [C] !Hourly
36,1,EXT SURFACE SOUTH WEST,Surface Outside Face Temperature [C] !Hourly
37,1,EXT SURFACE SOUTH WEST,Surface Inside Face Adjacent Air Temperature [C] !Hourly
38,1,EXT SURFACE SOUTH WEST,Surface Outside Face Outdoor Air Drybulb Temperature [C] !Hourly
39,1,EXT SURFACE SOUTH WEST,Surface Average Face Conduction Heat Transfer Rate [W] !Hourly
40,1,EXT SURFACE WEST SOUTH,Surface Inside Face Temperature [C] !Hourly
41,1,EXT SURFACE WEST SOUTH,Surface Outside Face Temperature [C] !Hourly
42,1,EXT SURFACE WEST SOUTH,Surface Inside Face Adjacent Air Temperature [C] !Hourly
43,1,EXT SURFACE WEST SOUTH,Surface Outside Face Outdoor Air Drybulb Temperature [C] !Hourly
44,1,EXT SURFACE WEST SOUTH,Surface Average Face Conduction Heat Transfer Rate [W] !Hourly
45,1,PZ2Z1,Surface Inside Face Temperature [C] !Hourly
46,1,PZ2Z1,Surface Outside Face Temperature [C] !Hourly
47,1,PZ2Z1,Surface Inside Face Adjacent Air Temperature [C] !Hourly
48,1,PZ2Z1,Surface Average Face Conduction Heat Transfer Rate [W] !Hourly
49,1,PZ2Z4,Surface Inside Face Temperature [C] !Hourly
50,1,PZ2Z4,Surface Outside Face Temperature [C] !Hourly
51,1,PZ2Z4,Surface Inside Face Adjacent Air Temperature [C] !Hourly
52,1,PZ2Z4,Surface Average Face Conduction Heat Transfer Rate [W] !Hourly
53,1,EXT SURFACE FLOOR SW,Surface Inside Face Temperature [C] !Hourly
54,1,EXT SURFACE FLOOR SW,Surface Outside Face Temperature [C] !Hourly
55,1,EXT SURFACE FLOOR SW,Surface Inside Face Adjacent Air Temperature [C] !Hourly
56,1,EXT SURFACE FLOOR SW,Surface Average Face Conduction Heat Transfer Rate [W] !Hourly
57,1,EXT SURFACE ROOF SW,Surface Inside Face Temperature [C] !Hourly
58,1,EXT SURFACE ROOF SW,Surface Outside Face Temperature [C] !Hourly
59,1,EXT SURFACE ROOF SW,Surface Inside Face Adjacent Air Temperature [C] !Hourly
60,1,EXT SURFACE ROOF SW,Surface Outside Face Outdoor Air Drybulb Temperature [C] !Hourly
61,1,EXT SURFACE ROOF SW,Surface Average Face Conduction Heat Transfer Rate [W] !Hourly
62,1,EXT SURFACE NORTH EAST,Surface Inside Face Temperature [C] !Hourly
63,1,EXT SURFACE NORTH EAST,Surface Outside Face Temperature [C] !Hourly
64,1,EXT SURFACE NORTH EAST,Surface Inside Face Adjacent Air Temperature [C] !Hourly
65,1,EXT SURFACE NORTH EAST,Surface Outside Face Outdoor Air Drybulb Temperature [C] !Hourly
66,1,EXT SURFACE NORTH EAST,Surface Average Face Conduction Heat Transfer Rate [W] !Hourly
67,1,EXT SURFACE EAST NORTH,Surface Inside Face Temperature [C] !Hourly
68,1,EXT SURFACE EAST NORTH,Surface Outside Face Temperature [C] !Hourly
69,1,EXT SURFACE EAST NORTH,Surface Inside Face Adjacent Air Temperature [C] !Hourly
70,1,EXT SURFACE EAST NORTH,Surface Outside Face Outdoor Air Drybulb Temperature [C] !Hourly
71,1,EXT SURFACE EAST NORTH,Surface Average Face Conduction Heat Transfer Rate [W] !Hourly
72,1,PZ3Z1,Surface Inside Face Temperature [C] !Hourly
73,1,PZ3Z1,Surface Outside Face Temperature [C] !Hourly
74,1,PZ3Z1,Surface Inside Face Adjacent Air Temperature [C] !Hourly
75,1,PZ3Z1,Surface Average Face Conduction Heat Transfer Rate [W] !Hourly
76,1,PZ3Z4,Surface Inside Face Temperature [C] !Hourly
77,1,PZ3Z4,Surface Outside Face Temperature [C] !Hourly
78,1,PZ3Z4,Surface Inside Face Adjacent Air Temperature [C] !Hourly
79,1,PZ3Z4,Surface Average Face Conduction Heat Transfer Rate [W] !Hourly
80,1,EXT SURFACE FLOOR NE,Surface Inside Face Temperature [C] !Hourly
81,1,EXT SURFACE FLOOR NE,Surface Outside Face Temperature [C] !Hourly
82,1,EXT SURFACE FLOOR NE,Surface Inside Face Adjacent Air Temperature [C] !Hourly
83,1,EXT SURFACE FLOOR NE,Surface Average Face Conduction Heat Transfer Rate [W] !Hourly
84,1,EXT SURFACE ROOF NE,Surface Inside Face Temperature [C] !Hourly
85,1,EXT SURFACE ROOF NE,Surface Outside Face Temperature [C] !Hourly
86,1,EXT SURFACE ROOF NE,Surface Inside Face Adjacent Air Temperature [C] !Hourly
87,1,EXT SURFACE ROOF NE,Surface Outside Face Outdoor Air Drybulb Temperature [C] !Hourly
88,1,EXT SURFACE ROOF NE,Surface Average Face Conduction Heat Transfer Rate [W] !Hourly
89,1,EXT SURFACE NORTH WEST,Surface Inside Face Temperature [C] !Hourly
90,1,EXT SURFACE NORTH WEST,Surface Outside Face Temperature [C] !Hourly
91,1,EXT SURFACE NORTH WEST,Surface Inside Face Adjacent Air Temperature [C] !Hourly
92,1,EXT SURFACE NORTH WEST,Surface Outside Face Outdoor Air Drybulb Temperature [C] !Hourly
93,1,EXT SURFACE NORTH WEST,Surface Average Face Conduction Heat Transfer Rate [W] !Hourly
94,1,EXT SURFACE WEST NORTH,Surface Inside Face Temperature [C] !Hourly
95,1,EXT SURFACE WEST NORTH,Surface Outside Face Temperature [C] !Hourly
96,1,EXT SURFACE WEST NORTH,Surface Inside Face Adjacent Air Temperature [C] !Hourly
97,1,EXT SURFACE WEST NORTH,Surface Outside Face Outdoor Air Drybulb Temperature [C] !Hourly
98,1,EXT SURFACE WEST NORTH,Surface Average Face Conduction Heat Transfer Rate [W] !Hourly
99,1,PZ4Z2,Surface Inside Face Temperature [C] !Hourly
100,1,PZ4Z2,Surface Outside Face Temperature [C] !Hourly
101,1,PZ4Z2,Surface Inside Face Adjacent Air Temperature [C] !Hourly
102,1,PZ4Z2,Surface Average Face Conduction Heat Transfer Rate [W] !Hourly
103,1,PZ4Z3,Surface Inside Face Temperature [C] !Hourly
104,1,PZ4Z3,Surface Outside Face Temperature [C] !Hourly
105,1,PZ4Z3,Surface Inside Face Adjacent Air Temperature [C] !Hourly
106,1,PZ4Z3,Surface Average Face Conduction Heat Transfer Rate [W] !Hourly
107,1,EXT SURFACE FLOOR NW,Surface Inside Face Temperature [C] !Hourly
108,1,EXT SURFACE FLOOR NW,Surface Outside Face Temperature [C] !Hourly
109,1,EXT SURFACE FLOOR NW,Surface Inside Face Adjacent Air Temperature [C] !Hourly
110,1,EXT SURFACE FLOOR NW,Surface Average Face Conduction Heat Transfer Rate [W] !Hourly
111,1,EXT SURFACE ROOF NW,Surface Inside Face Temperature [C] !Hourly
112,1,EXT SURFACE ROOF NW,Surface Outside Face Temperature [C] !Hourly
113,1,EXT SURFACE ROOF NW,Surface Inside Face Adjacent Air Temperature [C] !Hourly
114,1,EXT SURFACE ROOF NW,Surface Outside Face Outdoor Air Drybulb Temperature [C] !Hourly
115,1,EXT SURFACE ROOF NW,Surface Average Face Conduction Heat Transfer Rate [W] !Hourly
116,1,Z1,Zone Air Temperature [C] !Hourly
117,1,Z1,Zone Air System Sensible Heating Energy [J] !Hourly
251,1,Z1,Zone Predicted Sensible Load to Setpoint Heat Transfer Rate [W] !Hourly
252,1,Z2,Zone Air Temperature [C] !Hourly
253,1,Z2,Zone Air System Sensible Heating Energy [J] !Hourly
315,1,Z2,Zone Predicted Sensible Load to Setpoint Heat Transfer Rate [W] !Hourly
316,1,Z3,Zone Air Temperature [C] !Hourly
317,1,Z3,Zone Air System Sensible Heating Energy [J] !Hourly
379,1,Z3,Zone Predicted Sensible Load to Setpoint Heat Transfer Rate [W] !Hourly
380,1,Z4,Zone Air Temperature [C] !Hourly
381,1,Z4,Zone Air System Sensible Heating Energy [J] !Hourly
443,1,Z4,Zone Predicted Sensible Load to Setpoint Heat Transfer Rate [W] !Hourly
542,1,Z1 PURCHASED AIR,Zone Ideal Loads Zone Total Heating Rate [W] !Hourly
545,1,Z2 PURCHASED AIR,Zone Ideal Loads Zone Total Heating Rate [W] !Hourly
548,1,Z3 PURCHASED AIR,Zone Ideal Loads Zone Total Heating Rate [W] !Hourly
551,1,Z4 PURCHASED AIR,Zone Ideal Loads Zone Total Heating Rate [W] !Hourly
446,1,DistrictHeatingWater:Facility [J] !Hourly
End of Data Dictionary
1,SUMMER DESIGN DAY IN SALFORD ENERGY HOUSE 1.0 (01-01:31-12) JUN,  53.35,  -2.28,   0.00,  69.00
2,1, 6,15, 1, 1, 0.00,60.00,SummerDesignDay
7,18.983
8,30.889882350042107
9,19.592636638081412
10,33.353271172679094
11,18.985274999051487
12,-69.75613368500443
13,30.889882350042107
14,19.592636638081412
15,33.353271172679094
16,18.985274999051487
17,-69.75613368500443
18,34.74278295641169
19,34.742782951632414
20,33.353271172679094
21,-6.959474012080413e-7
22,34.74278296276073
23,34.74278296187535
24,33.353271172679094
25,-1.2895931311707187e-7
26,33.35339265822252
27,18.0
28,33.353271172679094
29,-0.00242023923676414
30,35.983138777129014
31,21.27187178980963
32,33.353271172679094
33,18.97780000310887
34,-170.84171873708192
35,30.889882335460204
36,19.592636637336735
37,33.35327115509026
38,18.985274999051487
39,-69.75613359961227
40,30.889882335460204
41,19.592636637336735
42,33.35327115509026
43,18.985274999051487
44,-69.75613359961227
45,34.742782951632414
46,34.74278295641169
47,33.35327115509026
48,6.959441858356286e-7
49,34.74278294240726
50,34.742782941518534
51,33.35327115509026
52,-1.2944713621843018e-7
53,33.3533926406311
54,18.0
55,33.35327115509026
56,-0.0024202392339911084
57,35.98313874713276
58,21.27187178764362
59,33.35327115509026
60,18.97780000310887
61,-170.8417191634246
62,30.889882347714913
63,19.592636637962727
64,33.353271169870155
65,18.985274999051487
66,-69.75613367136853
67,30.889882347714913
68,19.592636637962727
69,33.353271169870155
70,18.985274999051487
71,-69.75613367136853
72,34.74278296187535
73,34.74278296276073
74,33.353271169870155
75,1.2895598330842084e-7
76,34.74278295265019
77,34.74278294786756
78,33.353271169870155
79,-6.964358412603344e-7
80,33.35339265541357
81,18.0
82,33.353271169870155
83,-0.0024202392363213503
84,35.98313877115789
85,21.271871788175087
86,33.353271169870155
87,18.97780000310887
88,-170.84171871247872
89,30.889882333125982
90,19.59263663721769
91,33.35327115227285
92,18.985274999051487
93,-69.75613358593517
94,30.889882333125982
95,19.59263663721769
96,33.35327115227285
97,18.985274999051487
98,-69.75613358593517
99,34.742782941518534
100,34.74278294240726
101,33.35327115227285
102,1.2944358579458637e-7
103,34.74278294786756
104,34.74278295265019
105,33.35327115227285
106,6.964322173119708e-7
107,33.35339263781367
108,18.0
109,33.35327115227285
110,-0.002420239233546983
111,35.9831387411316
112,21.271871786011207
113,33.35327115227285
114,18.97780000310887
115,-170.84171914003218
116,33.26701978823388
117,0.0
251,-7424.630075324032
252,33.26701977176416
253,0.0
315,-7424.630065083175
316,33.26701978545231
317,0.0
379,-7424.630073445627
380,33.26701976897431
381,0.0
443,-7424.63006319812
542,0.0
545,0.0
548,0.0
551,0.0
446,0.0
2,1, 6,15, 1, 2, 0.00,60.00,SummerDesignDay
7,18.622
8,30.508504769639668
9,19.230550072531983
10,32.96775454677532
11,18.624274999051487
12,-69.63458292855452
13,30.508504769639668
14,19.230550072531983
15,32.96775454677532
16,18.624274999051487
17,-69.63458292855452
18,34.28582510753307
19,34.285825103772034
20,32.96775454677532
21,-5.476890702765802e-7
22,34.2858251123552
23,34.28582511154674
24,32.96775454677532
25,-1.1775146260828429e-7
26,32.96787537854523
27,18.0
28,32.96775454677532
29,-0.002359468039967721
30,35.460667080849056
31,20.6383035849992
32,32.96775454677532
33,18.61680000310887
34,-146.8561403255933
35,30.508504758328158
36,19.23055007195437
37,32.96775453312961
38,18.624274999051487
39,-69.63458286231024
40,30.508504758328158
41,19.23055007195437
42,32.96775453312961
43,18.624274999051487
44,-69.63458286231024
45,34.285825103772034
46,34.28582510753307
47,32.96775453312961
48,5.476857813102587e-7
49,34.28582509631396
50,34.28582509550199
51,32.96775453312961
52,-1.1826185880581264e-7
53,32.96787536489827
54,18.0
55,32.96775453312961
56,-0.0023594680378164756
57,35.4606670569586
58,20.63830358270503
59,32.96775453312961
60,18.61680000310887
61,-146.85614061203
62,30.508504767446063
63,19.230550072420076
64,32.96775454412797
65,18.624274999051487
66,-69.63458291570299
67,30.508504767446063
68,19.230550072420076
69,32.96775454412797
70,18.624274999051487
71,-69.63458291570299
72,34.28582511154674
73,34.2858251123552
74,32.96775454412797
75,1.1774817777754354e-7
76,34.285825104088644
77,34.28582510032412
78,32.96775454412797
79,-5.481971131204855e-7
80,32.96787537589782
81,18.0
82,32.96775454412797
83,-0.002359468039550394
84,35.460667075448924
85,20.63830358361244
86,32.96775454412797
87,18.61680000310887
88,-146.85614031034083
89,30.508504756127802
90,19.230550071842117
91,32.96775453047413
92,18.624274999051487
93,-69.63458284941916
94,30.508504756127802
95,19.230550071842117
96,32.96775453047413
97,18.624274999051487
98,-69.63458284941916
99,34.28582509550199
100,34.28582509631396
101,32.96775453047413
102,1.1825827161970892e-7
103,34.28582510032412
104,34.285825104088644
105,32.96775453047413
106,5.481936893730888e-7
107,32.96787536224273
108,18.0
109,32.96775453047413
110,-0.0023594680373978678
111,35.46066705152642
112,20.638303581322447
113,32.96775453047413
114,18.61680000310887
115,-146.8561405982623
116,32.856741097968936
117,0.0
251,-7176.7220789315425
252,32.85674108511585
253,0.0
315,-7176.722070855963
316,32.856741095377274
317,0.0
379,-7176.722077207262
380,32.85674108251597
381,0.0
443,-7176.722069124761
542,0.0
545,0.0
548,0.0
551,0.0
446,0.0
2,1, 6,15, 1, 3, 0.00,60.00,SummerDesignDay
7,18.3655
8,30.07376922997158
9,18.96494418765122
10,32.496164253553914
11,18.367774999051484
12,-68.58888918466806
13,30.07376922997158
14,18.96494418765122
15,32.496164253553914
16,18.367774999051484
17,-68.58888918466806
18,33.741416967606625
19,33.741416964592226
20,32.496164253553914
21,-4.3897372599410733e-7
22,33.741416971361005
23,33.74141697063796
24,32.496164253553914
25,-1.0531047785200531e-7
26,32.496250962978664
27,18.0
28,32.496164253553914
29,-0.002285123304508951
30,34.85298074078399
31,20.15574506411688
32,32.496164253553914
33,18.36030000310887
34,-127.44179237091157
35,30.07376922099997
36,18.964944187193126
37,32.49616424273001
38,18.367774999051484
39,-68.58888913212462
40,30.07376922099997
41,18.964944187193126
42,32.49616424273001
43,18.367774999051484
44,-68.58888913212462
45,33.741416964592226
46,33.741416967606625
47,32.49616424273001
48,4.389706454444031e-7
49,33.74141695846958
50,33.74141695774283
51,32.49616424273001
52,-1.0584829261695017e-7
53,32.496250952154156
54,18.0
55,32.49616424273001
56,-0.002285123302802625
57,34.85298072141577
58,20.15574506184464
59,32.49616424273001
60,18.36030000310887
61,-127.44179256376174
62,30.073769227975394
63,18.964944187549367
64,32.49616425114493
65,18.367774999051484
66,-68.58888917297378
67,30.073769227975394
68,18.964944187549367
69,32.49616425114493
70,18.367774999051484
71,-68.58888917297378
72,33.74141697063796
73,33.741416971361005
74,32.49616425114493
75,1.053071644191439e-7
76,33.7414169645153
77,33.74141696149721
78,32.49616425114493
79,-4.395120432876265e-7
80,32.49625096056963
81,18.0
82,32.49616425114493
83,-0.0022851233041292027
84,34.85298073596486
85,20.15574506294339
86,32.49616425114493
87,18.36030000310887
88,-127.44179236247896
89,30.073769218996645
90,18.96494418709091
91,32.4961642403124
92,18.367774999051484
93,-68.58888912038853
94,30.073769218996645
95,18.96494418709091
96,32.4961642403124
97,18.367774999051484
98,-68.58888912038853
99,33.74141695774283
100,33.74141695846958
101,32.4961642403124
102,1.0584525701740066e-7
103,33.74141696149721
104,33.7414169645153
105,32.4961642403124
106,4.3950890143973353e-7
107,32.496250949736506
108,18.0
109,32.4961642403124
110,-0.0022851233024215175
111,34.85298071656271
112,20.155745060673986
113,32.4961642403124
114,18.36030000310887
115,-127.44179255674135
116,32.36797693447751
117,0.0
251,-6883.141205009132
252,32.36797692423197
253,0.0
315,-6883.141198514146
316,32.367976932132
317,0.0
379,-6883.141203458732
380,32.36797692187774
381,0.0
443,-6883.141196956408
542,0.0
545,0.0
548,0.0
551,0.0
446,0.0
2,1, 6,15, 1, 4, 0.00,60.00,SummerDesignDay
7,18.1375
8,29.593531258427646
9,18.724095459116214
10,31.963616173257236
11,18.139774999051486
12,-67.11028524405955
13,29.593531258427646
14,18.724095459116214
15,31.963616173257236
16,18.139774999051486
17,-67.11028524405955
18,33.13923733056968
19,33.139237328114774
20,31.963616173257236
21,-3.5750424647040813e-7
22,33.13923733355417
23,33.13923733291418
24,31.963616173257236
25,-9.321200700185273e-8
26,31.963695432902817
27,18.0
28,31.963616173257236
29,-0.0022011736642999517
30,34.190852822008495
31,19.76489059763084
32,31.963616173257236
33,18.13230000310887
34,-114.12628503753513
35,29.593531251179307
36,18.724095458746145
37,31.96361616451194
38,18.139774999051486
39,-67.11028520160704
40,29.59353125127295
41,18.72409545928487
42,31.96361616451194
43,18.139774999051486
44,-67.11028519883776
45,33.139237328114774
46,33.13923733056968
47,31.96361616451194
48,3.575010433382042e-7
49,33.13923732302527
50,33.13923732238211
51,31.96361616451194
52,-9.367295898676797e-8
53,31.963695424157166
54,18.0
55,31.96361616451194
56,-0.002201173662921326
57,34.19085280607156
58,19.764890595473293
59,31.96361616451194
60,18.13230000310887
61,-114.12628516827044
62,29.593531256717938
63,18.724095459461957
64,31.96361617110239
65,18.139774999051486
66,-67.11028523135344
67,29.593531256642006
68,18.724095459025094
69,31.96361617110239
70,18.139774999051486
71,-67.11028523359911
72,33.13923733291418
73,33.13923733355417
74,31.96361617110239
75,9.320874666540746e-8
76,33.139237327824674
77,33.13923732536661
78,31.96361617110239
79,-3.579637112977041e-7
80,31.96369543074793
81,18.0
82,31.96361617110239
83,-0.0022011736639602647
84,34.19085281773776
85,19.76489059663695
86,31.96361617110239
87,18.13230000310887
88,-114.12628503389533
89,29.593531249462604
90,18.724095459091533
91,31.963616162348647
92,18.139774999051486
93,-67.11028518885989
94,29.593531249480307
95,18.724095459193396
96,31.963616162348647
97,18.139774999051486
98,-67.11028518833628
99,33.13923732238211
100,33.13923732302527
101,31.963616162348647
102,9.366962920587252e-8
103,33.13923732536661
104,33.139237327824674
105,31.963616162348647
106,3.579603120446029e-7
107,31.963695421993815
108,18.0
109,31.963616162348647
110,-0.0022011736625803056
111,34.19085280177268
112,19.764890594479276
113,31.963616162348647
114,18.13230000310887
115,-114.12628516553627
116,31.82311898793349
117,0.0
251,-6558.285585626156
252,31.82311897963071
253,0.0
315,-6558.285580318565
316,31.8231189858489
317,0.0
379,-6558.285584248888
380,31.823118977537995
381,0.0
443,-6558.285578934947
542,0.0
545,0.0
548,0.0
551,0.0
446,0.0
2,1, 6,15, 1, 5, 0.00,60.00,SummerDesignDay
7,17.957
8,29.086854919381263
9,18.526932555418757
10,31.389457878208887
11,17.959274999051484
12,-65.19817395774014
13,29.086854919381263
14,18.526932555418757
15,31.389457878208887
16,17.959274999051484
17,-65.19817395774014
18,32.50073101403237
19,32.500731013931855
20,31.389457878208887
21,-1.3594253375770471e-8
22,32.50073101536408
23,32.50073101602857
24,31.389457878208887
25,9.74079231719216e-8
26,31.389545406948905
27,18.0
28,31.389457878208887
29,-0.0021106672562678083
30,33.497308324762805
31,20.52452430984255
32,31.389457878208887
33,17.95180000310887
34,60.78868994954314
35,29.08685492929769
36,18.526932555911863
37,31.389457890288238
38,17.959274999051484
39,-65.19817401641431
40,29.086855171688953
41,18.526933927647736
42,31.389457890288238
43,17.959274999051484
44,-65.19816701914831
45,32.500731013931855
46,32.50073101403237
47,31.389457890288238
48,1.3591205522134331e-8
49,32.50073101457018
50,32.50073101523299
51,31.389457890288238
52,9.716255711111899e-8
53,31.389545419017402
54,18.0
55,31.389457890288238
56,-0.002110667258170231
57,33.49730831287434
58,20.524524307849813
59,31.389457890288238
60,17.95180000310887
61,60.788689618483886
62,29.08685506703738
63,18.526933342244828
64,31.38945788855597
65,17.959274999051484
66,-65.19816999897415
67,29.086854927898592
68,18.526932555845505
69,31.38945788855597
70,17.959274999051484
71,-65.19817400799103
72,32.50073101602857
73,32.50073101536408
74,31.38945788855597
75,-9.741114671835138e-8
76,32.50073101666688
77,32.500731016564686
78,31.38945788855597
79,-1.3838487702977353e-8
80,31.389545417289433
81,18.0
82,31.38945788855597
83,-0.002110667257897841
84,33.497308321890216
85,20.52452430899884
86,31.38945788855597
87,17.95180000310887
88,60.788689796500194
89,29.086855076948606
90,18.526933342737664
91,31.389457900629044
92,17.959274999051484
93,-65.19817005761789
94,29.08685518020108
95,18.526933928074214
96,31.389457900629044
97,17.959274999051484
98,-65.19816706936876
99,32.50073101523299
100,32.50073101457018
101,31.389457900629044
102,-9.716590325392627e-8
103,32.500731016564686
104,32.50073101666688
105,31.389457900629044
106,1.3835431647568619e-8
107,31.38954542935165
108,18.0
109,31.389457900629044
110,-0.002110667259799274
111,33.49730830998819
112,20.52452430700322
113,31.389457900629044
114,17.95180000310887
115,60.78868946531156
116,31.24206598668311
117,0.0
251,-6213.698232000914
252,31.242066021287314
253,0.0
315,-6213.698239996639
316,31.242066009621933
317,0.0
379,-6213.698238229175
380,31.242066044220728
381,0.0
443,-6213.698246221406
542,0.0
545,0.0
548,0.0
551,0.0
446,0.0
2,1, 6,15, 1, 6, 0.00,60.00,SummerDesignDay
7,17.994999999999997
8,28.60492545196377
9,18.53826768847541
10,30.80037494140906
11,17.997274999051488
12,-62.149670147368944
13,28.60492545196377
14,18.53826768847541
15,30.80037494140906
16,17.997274999051488
17,-62.149670147368944
18,31.84771785791586
19,31.847717871956146
20,30.80037494140906
21,0.0000020485247350932045
22,31.84771784677535
23,31.84771785383545
24,30.80037494140906
25,0.000001029643195427088
26,30.800464089176586
27,18.0
28,30.80037494140906
29,-0.002017807147062319
30,32.79056542010418
31,25.751740374260482
32,30.80037494140906
33,17.989800003108872
34,443.30905596187336
35,28.60492557085344
36,18.53826769449973
37,30.800375085250217
38,17.997274999051488
39,-62.14967084574764
40,28.604926249359586
41,18.538271497401638
42,30.800375085250217
43,17.997274999051488
44,-62.14965153510334
45,31.847717871956146
46,31.84771785791586
47,30.800375085250217
48,-0.000002048527827924751
49,31.847717905941998
50,31.847717913002146
51,30.800375085250217
52,0.0000010296498999251558
53,30.800464232984506
54,18.0
55,30.800375085250217
56,-0.0020178071697315473
57,32.79056542586193
58,25.751740372454663
59,30.800375085250217
60,17.989800003108872
61,443.3090541729093
62,28.604925757451397
63,18.538269075864786
64,30.800375010959257
65,17.997274999051488
66,-62.14966346773572
67,28.604925509484566
68,18.538267691394957
69,30.800375010959257
70,17.997274999051488
71,-62.149670485035884
72,31.84771785383545
73,31.84771784677535
74,30.800375010959257
75,-0.0000010296462882308788
76,31.847717887821304
77,31.84771790186164
78,30.800375010959257
79,0.000002048531721504654
80,30.800464158714906
81,18.0
82,30.800375010959257
83,-0.0020178071580240244
84,32.79056542546046
85,25.751740373544134
86,30.800375010959257
87,17.989800003108872
88,443.309055154901
89,28.604925876339045
90,18.538269081889002
91,30.800375154797976
92,17.997274999051488
93,-62.14966416610262
94,28.604926306878365
95,18.53827150032108
96,30.800375154797976
97,17.997274999051488
98,-62.149651872758454
99,31.847717913002146
100,31.847717905941998
101,30.800375154797976
102,-0.0000010296528252240478
103,31.84771790186164
104,31.847717887821304
105,30.800375154797976
106,-0.000002048534830642601
107,30.800464302520393
108,18.0
109,30.800375154797976
110,-0.00201780718069287
111,32.790565431221026
112,25.751740371732712
113,30.800375154797976
114,17.989800003108872
115,443.3090533666207
116,30.655504146681455
117,0.0
251,-5863.374512893201
252,30.655504330676536
253,0.0
315,-5863.374569785594
316,30.65550422694497
317,0.0
379,-5863.374538416524
380,30.655504410938633
381,0.0
443,-5863.374595308907
542,0.0
545,0.0
548,0.0
551,0.0
446,0.0
2,1, 6,15, 1, 7, 0.00,60.00,SummerDesignDay
7,18.3845
8,28.2042282140496
9,18.887272609300258
10,30.23677631604494
11,18.386774999051486
12,-57.517473305605634
13,28.2042282140496
14,18.887272609300258
15,30.23677631604494
16,18.386774999051486
17,-57.517473305605634
18,31.211373719057036
19,31.211373750386592
20,30.23677631604494
21,0.000004566712213716073
22,31.21137368390453
23,31.211373693682713
24,30.23677631604494
25,0.0000014243908328243071
26,30.23685851584929
27,18.0
28,30.23677631604494
29,-0.0019289629187545674
30,32.09343210976913
31,33.93173234205146
32,30.23677631604494
33,18.37930000310887
34,700.6614966931577
35,28.2042284558269
36,18.887272621597702
37,30.236776608161477
38,18.386774999051486
39,-57.51747472376367
40,28.20422935982632
41,18.887277675229356
42,30.236776608161477
43,18.386774999051486
44,-57.517449093571095
45,31.211373750386592
46,31.211373719057036
47,30.236776608161477
48,-0.000004566715380086017
49,31.211373817909593
50,31.211373827688902
51,30.236776608161477
52,0.000001424554265827549
53,30.23685880793789
54,18.0
55,30.236776608161477
56,-0.0019289629647980908
57,32.093432148400126
58,33.93173234044282
59,30.236776608161477
60,18.37930000310887
61,700.6614936303513
62,28.204228430009877
63,18.887273407137883
64,30.23677640365829
65,18.386774999051486
66,-57.517469721001476
67,28.204228286644884
68,18.887272613003734
69,30.23677640365829
70,18.386774999051486
71,-57.51747373091719
72,31.211373693682713
73,31.21137368390453
74,30.23677640365829
75,-0.0000014243938684516122
76,31.211373761205735
77,31.211373792536385
78,30.23677640365829
79,0.000004566871761299551
80,30.23685860346377
81,18.0
82,30.23677640365829
83,-0.0019289629325657171
84,32.093432124888835
85,33.93173234144553
86,30.23677640365829
87,18.37930000310887
88,700.6614958847301
89,28.204228671788155
90,18.88727341943538
91,30.23677669577602
92,18.386774999051486
93,-57.51747113916528
94,28.20422943242259
95,18.887277678932886
96,30.23677669577602
97,18.386774999051486
98,-57.51744951888843
99,31.211373827688902
100,31.211373817909593
101,30.23677669577602
102,-0.0000014245573831672687
103,31.211373792536385
104,31.211373761205735
105,30.23677669577602
106,-0.000004566874739708737
107,30.23685889555356
108,18.0
109,30.23677669577602
110,-0.0019289629786094274
111,32.09343216353161
112,33.93173233982972
113,30.23677669577602
114,18.37930000310887
115,700.6614928230433
116,30.104503771000573
117,0.0
251,-5526.208375126516
252,30.104504092707106
253,0.0
315,-5526.20848102258
316,30.104503853212297
317,0.0
379,-5526.208403521452
380,30.104504174920635
381,0.0
443,-5526.208509419713
542,0.0
545,0.0
548,0.0
551,0.0
446,0.0
2,1, 6,15, 1, 8, 0.00,60.00,SummerDesignDay
7,19.3915
8,27.969014752641613
9,19.830522912059543
10,29.74580257081769
11,19.393774999051487
12,-50.234881846772836
13,27.969014805396053
14,19.830523211809314
15,29.74580257081769
16,19.393774999051487
17,-50.234880315022444
18,30.635528219092198
19,30.63552826295832
20,29.74580257081769
21,0.000006391736057390074
22,30.635528157092814
23,30.635528163327255
24,29.74580257081769
25,9.071107393981981e-7
26,29.745899687381
27,18.0
28,29.74580257081769
29,-0.0018515703940699111
30,31.446002609522797
31,43.3038434597963
32,29.74580257081769
33,19.38630000310887
34,873.1834079763919
35,27.969015125902324
36,19.830523228136574
37,29.745802957841455
38,19.393774999051487
39,-50.23488219383253
40,27.96901602583184
41,19.83052824688349
42,29.745802957841455
43,19.393774999051487
44,-50.23485676960674
45,30.63552826295832
46,30.635528219092198
47,29.745802957841455
48,-0.000006391739035827015
49,30.63552834611425
50,30.635528352349972
51,29.745802957841455
52,9.072965656969911e-7
53,29.745900074384878
54,18.0
55,29.745802957841455
56,-0.0018515704550754485
57,31.446002683932857
58,43.30384345841811
59,29.745802957841455
60,19.38630000310887
61,873.1834045164101
62,27.96901480027019
63,19.830522955758248
64,29.74580261846759
65,19.393774999051487
66,-50.23488187474793
67,27.96901479222121