Program Version,EnergyPlus, Version 24.2.0-94a887817b, YMD=2026.01.14 16:17
1,5,Environment Title[],Latitude[deg],Longitude[deg],Time Zone[],Elevation[m]
2,8,Day of Simulation[],Month[],Day of Month[],DST Indicator[1=yes 0=no],Hour[],StartMinute[],EndMinute[],DayType
3,5,Cumulative Day of Simulation[],Month[],Day of Month[],DST Indicator[1=yes 0=no],DayType  ! When Daily Report Variables Requested
4,2,Cumulative Days of Simulation[],Month[]  ! When Monthly Report Variables Requested
5,1,Cumulative Days of Simulation[] ! When Run Period Report Variables Requested
6,1,Calendar Year of Simulation[] ! When Annual Report Variables Requested
7,1,Environment,Site Outdoor Air Drybulb Temperature [C] !Hourly
8,1,Z1,Zone Operative Temperature [C] !Hourly
9,1,Z2,Zone Operative Temperature [C] !Hourly
10,1,Z3,Zone Operative Temperature [C] !Hourly
11,1,Z4,Zone Operative Temperature [C] !Hourly
12,1,Z1,Zone Air Temperature [C] !Hourly
147,1,Z2,Zone Air Temperature [C] !Hourly
210,1,Z3,Zone Air Temperature [C] !Hourly
273,1,Z4,Zone Air Temperature [C] !Hourly
336,1,HOT WATER LOOP,Plant Supply Side Outlet Temperature [C] !Hourly
399,1,Z1 RADIATOR,Baseboard Total Heating Rate [W] !Hourly
400,1,Z1 RADIATOR,Baseboard Hot Water Mass Flow Rate [kg/s] !Hourly
403,1,Z2 RADIATOR,Baseboard Total Heating Rate [W] !Hourly
404,1,Z2 RADIATOR,Baseboard Hot Water Mass Flow Rate [kg/s] !Hourly
407,1,Z3 RADIATOR,Baseboard Total Heating Rate [W] !Hourly
408,1,Z3 RADIATOR,Baseboard Hot Water Mass Flow Rate [kg/s] !Hourly
411,1,Z4 RADIATOR,Baseboard Total Heating Rate [W] !Hourly
412,1,Z4 RADIATOR,Baseboard Hot Water Mass Flow Rate [kg/s] !Hourly
413,1,HEAT PUMP,Heat Pump Load Side Heat Transfer Rate [W] !Hourly
427,1,HEAT PUMP,Heat Pump Load Side Inlet Temperature [C] !Hourly
428,1,HEAT PUMP,Heat Pump Electricity Rate [W] !Hourly
503,1,SUPPLY PUMP,Pump Electricity Rate [W] !Hourly
504,1,SUPPLY PUMP,Pump Fluid Heat Gain Rate [W] !Hourly
505,1,SUPPLY PUMP,Pump Mass Flow Rate [kg/s] !Hourly
533,1,Baseboard Total Heating Rate All Zones,PythonPlugin:OutputVariable [W] !Hourly
End of Data Dictionary
1,WINTER DESIGN DAY IN (MID) UK,  53.35,  -2.28,   0.00,  69.00
2,1, 1,15, 0, 1, 0.00,60.00,WinterDesignDay
7,-3.0
8,19.100162268444706
9,19.100162268444706
10,19.100162268440755
11,19.100162268440755
12,20.95820397892023
147,20.95820397892023
210,20.958203978916636
273,20.958203978916636
336,51.27
399,472.5585301898942
400,0.029496
403,472.5585301898942
404,0.029496
407,472.558530189949
408,0.029496
411,472.558530189949
412,0.029496
413,1887.833653913629
427,47.79599615376067
428,816.6635512384718
503,1.9715477414228118
504,1.9715477414228118
505,0.12998674
533,1890.2341207596864
2,1, 1,15, 0, 2, 0.00,60.00,WinterDesignDay
7,-3.0
8,19.100154942683957
9,19.100154942683957
10,19.100154942679758
11,19.100154942679758
12,20.958197276039236
147,20.958197276039236
210,20.958197276035392
273,20.958197276035392
336,51.27
399,472.5586364087852
400,0.029496
403,472.5586364087852
404,0.029496
407,472.5586364088441
408,0.029496
411,472.5586364088441
412,0.029496
413,1887.8340795909605
427,47.79599537042646
428,816.6637353834892
503,1.9715477407357054
504,1.9715477407357054
505,0.12998674
533,1890.2345456352589
2,1, 1,15, 0, 3, 0.00,60.00,WinterDesignDay
7,-3.0
8,19.100148081856425
9,19.100148081856425
10,19.10014808185196
11,19.10014808185196
12,20.958190996895777
147,20.958190996895777
210,20.958190996891688
273,20.958190996891688
336,51.27
399,472.5587359106141
400,0.029496
403,472.5587359106141
404,0.029496
407,472.5587359106768
408,0.029496
411,472.5587359106768
412,0.029496
413,1887.8344783481825
427,47.79599463663081
428,816.6639078830568
503,1.9715477400920516
504,1.9715477400920516
505,0.12998674
533,1890.2349436425816
2,1, 1,15, 0, 4, 0.00,60.00,WinterDesignDay
7,-3.0
8,19.100141655861563
9,19.100141655861563
10,19.100141655856792
11,19.100141655856792
12,20.95818511419041
147,20.95818511419041
210,20.958185114186044
273,20.958185114186044
336,51.27
399,472.55882912831635
400,0.029496
403,472.55882912831635
404,0.029496
407,472.55882912838297
408,0.029496
411,472.55882912838297
412,0.029496
413,1887.834851920486
427,47.79599394918061
428,816.6640694878059
503,1.9715477394890504
504,1.9715477394890504
505,0.12998674
533,1890.2353165133989
2,1, 1,15, 0, 5, 0.00,60.00,WinterDesignDay
7,-3.0
8,19.100135636597237
9,19.100135636597237
10,19.10013563659205
11,19.10013563659205
12,20.958179602425574
147,20.958179602425574
210,20.958179602420824
273,20.958179602420824
336,51.27
399,472.5589164662341
400,0.029496
403,472.5589164662341
404,0.029496
407,472.55891646630664
408,0.029496
411,472.55891646630664
412,0.029496
413,1887.8352019284478
427,47.79599330509367
428,816.6642208987867
503,1.9715477389240856
504,1.9715477389240856
505,0.12998674
533,1890.2356658650815
2,1, 1,15, 0, 6, 0.00,60.00,WinterDesignDay
7,-3.0
8,19.100129997822236
9,19.100129997822236
10,19.100129997816964
11,19.100129997816964
12,20.95817443778244
147,20.95817443778244
210,20.958174437777576
273,20.958174437777576
336,51.27
399,472.55899830207284
400,0.029496
403,472.55899830207284
404,0.029496
407,472.55899830214867
408,0.029496
411,472.55899830214867
412,0.029496
413,1887.8355298858587
427,47.7959927015843
428,816.6643627708543
503,1.9715477383947138
504,1.9715477383947138
505,0.12998674
533,1890.235993208443
2,1, 1,15, 0, 7, 0.00,60.00,WinterDesignDay
7,-3.0
8,19.100124715029597
9,19.100124715029597
10,19.10012471502472
11,19.10012471502472
12,20.958169598007334
147,20.958169598007334
210,20.95816959800279
273,20.95816959800279
336,51.27
399,472.5590749887057
400,0.029496
403,472.5590749887057
404,0.029496
407,472.559074988778
408,0.029496
411,472.559074988778
412,0.029496
413,1887.8358372069945
427,47.79599213604993
428,816.6644957158146
503,1.9715477378986515
504,1.9715477378986515
505,0.12998674
533,1890.2362999549673
2,1, 1,15, 0, 8, 0.00,60.00,WinterDesignDay
7,-3.0
8,19.100119765328493
9,19.100119765328493
10,19.10011976532389
11,19.10011976532389
12,20.958165062305874
147,20.958165062305874
210,20.9581650623016
273,20.9581650623016
336,51.27
399,472.5591468558552
400,0.029496
403,472.5591468558552
404,0.029496
407,472.55914685592245
408,0.029496
411,472.55914685592245
412,0.029496
413,1887.8361252133325
427,47.79599160605878
428,816.6646203053293
503,1.9715477374337664
504,1.9715477374337664
505,0.12998674
533,1890.2365874235554
2,1, 1,15, 0, 9, 0.00,60.00,WinterDesignDay
7,-3.0
8,19.100115127334032
9,19.100115127334032
10,19.100115127329452
11,19.100115127329452
12,20.958160811244127
147,20.958160811244127
210,20.958160811239896
273,20.958160811239896
336,51.27
399,472.5592142116585
400,0.029496
403,472.5592142116585
404,0.029496
407,472.5592142117247
408,0.029496
411,472.5592142117247
412,0.029496
413,1887.8363951398642
427,47.79599110933822
428,816.6647370736471
503,1.971547736998065
504,1.971547736998065
505,0.12998674
533,1890.2368568467666
2,1, 1,15, 0,10, 0.00,60.00,WinterDesignDay
7,-3.0
8,19.100110781065666
9,19.100110781065666
10,19.100110781061197
11,19.100110781061197
12,20.95815682665735
147,20.95815682665735
210,20.9581568266532
273,20.9581568266532
336,51.27
399,472.5592773441223
400,0.029496
403,472.5592773441223
404,0.029496
407,472.55927734418754
408,0.029496
411,472.55927734418754
412,0.029496
413,1887.8366481408539
427,47.79599064376413
428,816.6648465200944
503,1.971547736589684
504,1.971547736589684
505,0.12998674
533,1890.2371093766194
2,1, 1,15, 0,11, 0.00,60.00,WinterDesignDay
7,-3.0
8,19.100106707852547
9,19.100106707852547
10,19.10010670784854
11,19.10010670784854
12,20.95815309156501
147,20.95815309156501
210,20.95815309156125
273,20.95815309156125
336,51.27
399,472.55933652246733
400,0.029496
403,472.55933652246733
404,0.029496
407,472.55933652252804
408,0.029496
411,472.55933652252804
412,0.029496
413,1887.8368852952872
427,47.795990207351
428,816.6649491114331
503,1.9715477362068812
504,1.9715477362068812
505,0.12998674
533,1890.2373460899905
2,1, 1,15, 0,12, 0.00,60.00,WinterDesignDay
7,-3.0
8,19.100102890245182
9,19.100102890245182
10,19.100102890241974
11,19.100102890241974
12,20.95814959009146
147,20.95814959009146
210,20.958149590088407
273,20.958149590088407
336,51.27
399,472.5593919983887
400,0.029496
403,472.5593919983887
404,0.029496
407,472.55939199843954
408,0.029496
411,472.55939199843954
412,0.029496
413,1887.8371076118938
427,47.795989798242516
428,816.6650452840324
503,1.9715477358480291
504,1.9715477358480291
505,0.12998674
533,1890.2375679936565
2,1, 1,15, 0,13, 0.00,60.00,WinterDesignDay
7,-3.0
8,19.1000993119334
9,19.1000993119334
10,19.100099311931018
11,19.100099311931018
12,20.958146307392134
147,20.958146307392134
210,20.958146307389843
273,20.958146307389843
336,51.27
399,472.5594440072278
400,0.029496
403,472.5594440072278
404,0.029496
407,472.55944400726656
408,0.029496
411,472.55944400726656
412,0.029496
413,1887.8373160338883
427,47.795989414703
428,816.6651354459202
503,1.9715477355116053
504,1.9715477355116053
505,0.12998674
533,1890.2377760289887
2,1, 1,15, 0,14, 0.00,60.00,WinterDesignDay
7,-3.0
8,19.100095957669698
9,19.100095957669698
10,19.10009595766813
11,19.10009595766813
12,20.95814322958468
147,20.95814322958468
210,20.95814322958313
273,20.95814322958313
336,51.27
399,472.5594927690629
400,0.029496
403,472.5594927690629
404,0.029496
407,472.55949276908984
408,0.029496
411,472.55949276908984
412,0.029496
413,1887.8375114432831
427,47.795989055109345
428,816.665219978649
503,1.9715477351961852
504,1.9715477351961852
505,0.12998674
533,1890.2379710763057
2,1, 1,15, 0,15, 0.00,60.00,WinterDesignDay
7,-3.0
8,19.100092813198614
9,19.100092813198614
10,19.10009281319791
11,19.10009281319791
12,20.958140343685287
147,20.958140343685287
210,20.95814034368454
273,20.95814034368454
336,51.27
399,472.55953848972297
400,0.029496
403,472.55953848972297
404,0.029496
407,472.5595384897383
408,0.029496
411,472.5595384897383
412,0.029496
413,1887.8376946649971
427,47.79598871794356
428,816.6652992390731
503,1.971547734900438
504,1.971547734900438
505,0.12998674
533,1890.2381539589226
2,1, 1,15, 0,16, 0.00,60.00,WinterDesignDay
7,-3.0
8,19.100089865190476
9,19.100089865190476
10,19.10008986519042
11,19.10008986519042
12,20.958137637549136
147,20.958137637549136
210,20.958137637549008
273,20.958137637549008
336,51.27
399,472.5595813617323
400,0.029496
403,472.5595813617323
404,0.029496
407,472.559581361736
408,0.029496
411,472.559581361736
412,0.029496
413,1887.8378664706079
427,47.79598840178574
428,816.6653735609709
503,1.9715477346231185
504,1.9715477346231185
505,0.12998674
533,1890.2383254469364
2,1, 1,15, 0,17, 0.00,60.00,WinterDesignDay
7,-3.0
8,19.10008710117948
9,19.10008710117948
10,19.10008710117964
11,19.10008710117964
12,20.958135099814598
147,20.958135099814598
210,20.95813509981471
273,20.95813509981471
336,51.27
399,472.5596215651905
400,0.029496
403,472.5596215651905
404,0.029496
407,472.5596215651892
408,0.029496
411,472.5596215651892
412,0.029496
413,1887.8380275819254
427,47.79598810530764
428,816.6654432565928
503,1.9715477343630607
504,1.9715477343630607
505,0.12998674
533,1890.2384862607594
2,1, 1,15, 0,18, 0.00,60.00,WinterDesignDay
7,-3.0
8,19.100084509506225
9,19.100084509506225
10,19.100084509506438
11,19.100084509506438
12,20.958132719851434
147,20.958132719851434
210,20.958132719851605
273,20.958132719851605
336,51.27
399,472.55965926860154
400,0.029496
403,472.55965926860154
404,0.029496
407,472.5596592685991
408,0.029496
411,472.5596592685991
412,0.029496
413,1887.8381786742464
427,47.795987827266565
428,816.6655086180674
503,1.9715477341191754
504,1.9715477341191754
505,0.12998674
533,1890.2386370744014
2,1, 1,15, 0,19, 0.00,60.00,WinterDesignDay
7,-3.0
8,19.100082079264446
9,19.100082079264446
10,19.100082079264766
11,19.100082079264766
12,20.958130487712754
147,20.958130487712754
210,20.95813048771302
273,20.95813048771302
336,51.27
399,472.5596946296322
400,0.029496
403,472.5596946296322
404,0.029496
407,472.5596946296287
408,0.029496
411,472.5596946296287
412,0.029496
413,1887.8383203794544
427,47.79598756649971
428,816.6655699187432
503,1.9715477338904421
504,1.9715477338904421
505,0.12998674
533,1890.2387785185217
2,1, 1,15, 0,20, 0.00,60.00,WinterDesignDay
7,-3.0
8,19.10007980025158
9,19.10007980025158
10,19.10007980025216
11,19.10007980025216
12,20.958128394090387
147,20.958128394090387
210,20.958128394090878
273,20.958128394090878
336,51.27
399,472.5597277958227
400,0.029496
403,472.5597277958227
404,0.029496
407,472.5597277958166
408,0.029496
411,472.5597277958166
412,0.029496
413,1887.8384532888308
427,47.795987321919014
428,816.665627414404
503,1.9715477336759066
504,1.9715477336759066
505,0.12998674
533,1890.2389111832786
2,1, 1,15, 0,21, 0.00,60.00,WinterDesignDay
7,-3.0
8,19.100077662922008
9,19.100077662922008
10,19.100077662923137
11,19.100077662923137
12,20.958126430272777
147,20.958126430272777
210,20.958126430273747
273,20.958126430273747
336,51.27
399,472.559758905252
400,0.029496
403,472.559758905252
404,0.029496
407,472.55975890523916
408,0.029496
411,472.55975890523916
412,0.029496
413,1887.8385779557477
427,47.79598709250613
428,816.6656813444347
503,1.9715477334746758
504,1.9715477334746758
505,0.12998674
533,1890.2390356209826
2,1, 1,15, 0,22, 0.00,60.00,WinterDesignDay
7,-3.0
8,19.100075658343847
9,19.100075658343847
10,19.100075658345496
11,19.100075658345496
12,20.95812458810589
147,20.95812458810589
210,20.958124588107346
273,20.958124588107346
336,51.27
399,472.5597880871589
400,0.029496
403,472.5597880871589
404,0.029496
407,472.5597880871378
408,0.029496
411,472.5597880871378
412,0.029496
413,1887.8386948981488
427,47.79598687730797
428,816.6657319328942
503,1.971547733285913
504,1.971547733285913
505,0.12998674
533,1890.2391523485935
2,1, 1,15, 0,23, 0.00,60.00,WinterDesignDay
7,-3.0
8,19.100073778158375
9,19.100073778158375
10,19.10007377816035
11,19.10007377816035
12,20.958122859956617
147,20.958122859956617
210,20.9581228599584
273,20.9581228599584
336,51.27
399,472.55981546252127
400,0.029496
403,472.55981546252127
404,0.029496
407,472.55981546249456
408,0.029496
411,472.55981546249456
412,0.029496
413,1887.83880460088
427,47.79598667543228
428,816.6657793895237
503,1.971547733108837
504,1.971547733108837
505,0.12998674
533,1890.2392618500317
2,1, 1,15, 0,24, 0.00,60.00,WinterDesignDay
7,-3.0
8,19.100072014542175
9,19.100072014542175
10,19.100072014544097
11,19.100072014544097
12,20.958121238678544
147,20.958121238678544
210,20.95812123868032
273,20.95812123868032
336,51.27
399,472.55984114460085
400,0.029496
403,472.55984114460085
404,0.029496
407,472.5598411445726
408,0.029496
411,472.5598411445726
412,0.029496
413,1887.838907517852
427,47.79598648604379
428,816.6658239106814
503,1.9715477329427133
504,1.9715477329427133
505,0.12998674
533,1890.2393645783468
End of Data
 Number of Records Written=         600
