Program Version,EnergyPlus, Version 24.2.0-94a887817b, YMD=2026.01.14 16:15
1,5,Environment Title[],Latitude[deg],Longitude[deg],Time Zone[],Elevation[m]
2,8,Day of Simulation[],Month[],Day of Month[],DST Indicator[1=yes 0=no],Hour[],StartMinute[],EndMinute[],DayType
3,5,Cumulative Day of Simulation[],Month[],Day of Month[],DST Indicator[1=yes 0=no],DayType  ! When Daily Report Variables Requested
4,2,Cumulative Days of Simulation[],Month[]  ! When Monthly Report Variables Requested
5,1,Cumulative Days of Simulation[] ! When Run Period Report Variables Requested
6,1,Calendar Year of Simulation[] ! When Annual Report Variables Requested
7,1,Environment,Site Outdoor Air Drybulb Temperature [C] !Hourly
8,1,Z1,Zone Operative Temperature [C] !Hourly
9,1,Z2,Zone Operative Temperature [C] !Hourly
10,1,Z3,Zone Operative Temperature [C] !Hourly
11,1,Z4,Zone Operative Temperature [C] !Hourly
12,1,Z1,Zone Air Temperature [C] !Hourly
147,1,Z2,Zone Air Temperature [C] !Hourly
210,1,Z3,Zone Air Temperature [C] !Hourly
273,1,Z4,Zone Air Temperature [C] !Hourly
336,1,HOT WATER LOOP,Plant Supply Side Outlet Temperature [C] !Hourly
399,1,Z1 RADIATOR,Baseboard Total Heating Rate [W] !Hourly
400,1,Z1 RADIATOR,Baseboard Hot Water Mass Flow Rate [kg/s] !Hourly
403,1,Z2 RADIATOR,Baseboard Total Heating Rate [W] !Hourly
404,1,Z2 RADIATOR,Baseboard Hot Water Mass Flow Rate [kg/s] !Hourly
407,1,Z3 RADIATOR,Baseboard Total Heating Rate [W] !Hourly
408,1,Z3 RADIATOR,Baseboard Hot Water Mass Flow Rate [kg/s] !Hourly
411,1,Z4 RADIATOR,Baseboard Total Heating Rate [W] !Hourly
412,1,Z4 RADIATOR,Baseboard Hot Water Mass Flow Rate [kg/s] !Hourly
413,1,HEAT PUMP,Heat Pump Load Side Heat Transfer Rate [W] !Hourly
427,1,HEAT PUMP,Heat Pump Load Side Inlet Temperature [C] !Hourly
428,1,HEAT PUMP,Heat Pump Electricity Rate [W] !Hourly
503,1,SUPPLY PUMP,Pump Electricity Rate [W] !Hourly
504,1,SUPPLY PUMP,Pump Fluid Heat Gain Rate [W] !Hourly
505,1,SUPPLY PUMP,Pump Mass Flow Rate [kg/s] !Hourly
533,1,Baseboard Total Heating Rate All Zones,PythonPlugin:OutputVariable [W] !Hourly
End of Data Dictionary
1,WINTER DESIGN DAY IN (MID) UK,  53.35,  -2.28,   0.00,  69.00
2,1, 1,15, 0, 1, 0.00,60.00,WinterDesignDay
7,-3.0
8,20.141057947808555
9,20.141057947808555
10,20.141057947810133
11,20.141057947810133
12,21.00418716940061
147,21.00418716940061
210,21.004187169402044
273,21.004187169402044
336,50.03
399,452.50559679590975
400,0.029496
403,452.50559679590975
404,0.029496
407,452.5055967958887
408,0.029496
411,452.5055967958887
412,0.029496
413,1807.7611495217432
427,46.70317217534253
428,761.5828644640923
503,1.970589629880547
504,1.970589629880547
505,0.12998674
533,1810.022387183597
2,1, 1,15, 0, 2, 0.00,60.00,WinterDesignDay
7,-3.0
8,20.14105603602429
9,20.14105603602429
10,20.14105603602603
11,20.14105603602603
12,21.00418540733923
147,21.00418540733923
210,21.00418540734082
273,21.00418540734082
336,50.03
399,452.5056247682567
400,0.029496
403,452.5056247682567
404,0.029496
407,452.5056247682326
408,0.029496
411,452.5056247682326
412,0.029496
413,1807.7612616555616
427,46.70317196898236
428,761.582911704401
503,1.9705896296997127
504,1.9705896296997127
505,0.12998674
533,1810.0224990729787
2,1, 1,15, 0, 3, 0.00,60.00,WinterDesignDay
7,-3.0
8,20.141054257884274
9,20.141054257884274
10,20.141054257886243
11,20.141054257886243
12,21.004183768455952
147,21.004183768455952
210,21.00418376845775
273,21.00418376845775
336,50.03
399,452.505650785173
400,0.029496
403,452.505650785173
404,0.029496
407,452.5056507851463
408,0.029496
411,452.5056507851463
412,0.029496
413,1807.7613659505655
427,46.70317177704798
428,761.5829556423337
503,1.9705896295315195
504,1.9705896295315195
505,0.12998674
533,1810.0226031406387
2,1, 1,15, 0, 4, 0.00,60.00,WinterDesignDay
7,-3.0
8,20.141052604045242
9,20.141052604045242
10,20.141052604047537
11,20.141052604047537
12,21.00418224413911
147,21.00418224413911
210,21.004182244141205
273,21.004182244141205
336,50.03
399,452.50567498336966
400,0.029496
403,452.50567498336966
404,0.029496
407,452.50567498333834
408,0.029496
411,452.50567498333834
412,0.029496
413,1807.7614629547934
427,46.70317159853083
428,761.582996508771
503,1.9705896293750842
504,1.9705896293750842
505,0.12998674
533,1810.022699933416
2,1, 1,15, 0, 5, 0.00,60.00,WinterDesignDay
7,-3.0
8,20.141051065817557
9,20.141051065817557
10,20.141051065819937
11,20.141051065819937
12,21.004180826379518
147,21.004180826379518
210,21.004180826381727
273,21.004180826381727
336,50.03
399,452.50569748999175
400,0.029496
403,452.50569748999175
404,0.029496
407,452.50569748995736
408,0.029496
411,452.50569748995736
412,0.029496
413,1807.7615531779438
427,46.70317143249291
428,761.5830345184413
503,1.9705896292295848
504,1.9705896292295848
505,0.12998674
533,1810.022789959898
2,1, 1,15, 0, 6, 0.00,60.00,WinterDesignDay
7,-3.0
8,20.141049635118993
9,20.141049635118993
10,20.141049635121018
11,20.141049635121018
12,21.004179507727887
147,21.004179507727887
210,21.004179507729823
273,21.004179507729823
336,50.03
399,452.50571842329487
400,0.029496
403,452.50571842329487
404,0.029496
407,452.5057184232631
408,0.029496
411,452.5057184232631
412,0.029496
413,1807.7616370940773
427,46.703171278061816
428,761.5830698710594
503,1.9705896290942562
504,1.9705896290942562
505,0.12998674
533,1810.0228736931158
2,1, 1,15, 0, 7, 0.00,60.00,WinterDesignDay
7,-3.0
8,20.141048304432314
9,20.141048304432314
10,20.141048304433703
11,20.141048304433703
12,21.004178281255683
147,21.004178281255683
210,21.004178281257065
273,21.004178281257065
336,50.03
399,452.5057378932685
400,0.029496
403,452.5057378932685
404,0.029496
407,452.5057378932446
408,0.029496
411,452.5057378932446
412,0.029496
413,1807.7617151441223
427,46.703171134426114
428,761.5831027523816
503,1.9705896289683875
504,1.9705896289683875
505,0.12998674
533,1810.0229515730264
2,1, 1,15, 0, 8, 0.00,60.00,WinterDesignDay
7,-3.0
8,20.141047066765903
9,20.141047066765903
10,20.141047066766852
11,20.141047066766852
12,21.004177140518816
147,21.004177140518816
210,21.004177140519772
273,21.004177140519772
336,50.03
399,452.50575600221123
400,0.029496
403,452.50575600221123
404,0.029496
407,452.5057560021951
408,0.029496
411,452.5057560021951
412,0.029496
413,1807.7617877381472
427,46.70317100083112
428,761.5831333351638
503,1.9705896288513176
504,1.9705896288513176
505,0.12998674
533,1810.0230240088129
2,1, 1,15, 0, 9, 0.00,60.00,WinterDesignDay
7,-3.0
8,20.141045915617205
9,20.141045915617205
10,20.141045915617852
11,20.141045915617852
12,21.004176079523937
147,21.004176079523937
210,21.0041760795246
273,21.0041760795246
336,50.03
399,452.5057728452679
400,0.029496
403,452.5057728452679
404,0.029496
407,452.50577284525633
408,0.029496
411,452.50577284525633
412,0.029496
413,1807.7618552575586
427,46.703170876574966
428,761.5831617800868
503,1.9705896287424316
504,1.9705896287424316
505,0.12998674
533,1810.0230913810485
2,1, 1,15, 0,10, 0.00,60.00,WinterDesignDay
7,-3.0
8,20.141044844938403
9,20.141044844938403
10,20.141044844938637
11,20.141044844938637
12,21.00417509269685
147,21.00417509269685
210,21.004175092697142
273,21.004175092697142
336,50.03
399,452.50578851092774
400,0.029496
403,452.50578851092774
404,0.029496
407,452.5057885109213
408,0.029496
411,452.5057885109213
412,0.029496
413,1807.761918057099
427,46.7031707610048
428,761.5831882365984
503,1.970589628641157
504,1.970589628641157
505,0.12998674
533,1810.0231540436982
2,1, 1,15, 0,11, 0.00,60.00,WinterDesignDay
7,-3.0
8,20.141043849104214
9,20.141043849104214
10,20.14104384910411
11,20.14104384910411
12,21.004174174852835
147,21.004174174852835
210,21.0041741748528
273,21.0041741748528
336,50.03
399,452.50580308149597
400,0.029496
403,452.50580308149597
404,0.029496
407,452.5058030814953
408,0.029496
411,452.5058030814953
412,0.029496
413,1807.7619764666988
427,46.70317065351345
428,761.5832128436934
503,1.970589628546962
504,1.970589628546962
505,0.12998674
533,1810.0232123259823
2,1, 1,15, 0,12, 0.00,60.00,WinterDesignDay
7,-3.0
8,20.14104292288267
9,20.14104292288267
10,20.141042922882093
11,20.141042922882093
12,21.004173321169656
147,21.004173321169656
210,21.004173321169198
273,21.004173321169198
336,50.03
399,452.50581663352546
400,0.029496
403,452.50581663352546
404,0.029496
407,452.50581663353046
408,0.029496
411,452.50581663353046
412,0.029496
413,1807.7620307932475
427,46.703170553536154
428,761.5832357306597
503,1.9705896284593514
504,1.9705896284593514
505,0.12998674
533,1810.0232665341118
2,1, 1,15, 0,13, 0.00,60.00,WinterDesignDay
7,-3.0
8,20.14104206140742
9,20.14104206140742
10,20.141042061406168
11,20.141042061406168
12,21.004172527162105
147,21.004172527162105
210,21.004172527161035
273,21.004172527161035
336,50.03
399,452.5058292382165
400,0.029496
403,452.5058292382165
404,0.029496
407,452.5058292382312
408,0.029496
411,452.5058292382312
412,0.029496
413,1807.7620813221668
427,46.70317046054764
428,761.5832570177413
503,1.9705896283778652
504,1.9705896283778652
505,0.12998674
533,1810.0233169528956
2,1, 1,15, 0,14, 0.00,60.00,WinterDesignDay
7,-3.0
8,20.14104126015206
9,20.14104126015206
10,20.141041260150445
11,20.141041260150445
12,21.00417178865829
147,21.00417178865829
210,21.004171788656848
273,21.004171788656848
336,50.03
399,452.50584096179705
400,0.029496
403,452.50584096179705
404,0.029496
407,452.50584096181854
408,0.029496
411,452.50584096181854
412,0.029496
413,1807.7621283189462
427,46.70317037405934
428,761.583276816785
503,1.9705896283020752
504,1.9705896283020752
505,0.12998674
533,1810.0233638472312
2,1, 1,15, 0,15, 0.00,60.00,WinterDesignDay
7,-3.0
8,20.141040514906926
9,20.141040514906926
10,20.14104051490532
11,20.14104051490532
12,21.004171101778184
147,21.004171101778184
210,21.004171101776706
273,21.004171101776706
336,50.03
399,452.50585186586284
400,0.029496
403,452.50585186586284
404,0.029496
407,452.5058518658861
408,0.029496
411,452.5058518658861
412,0.029496
413,1807.7621720304946
427,46.703170293616864
428,761.5832952318098
503,1.970589628231583
504,1.970589628231583
505,0.12998674
533,1810.023407463498
2,1, 1,15, 0,16, 0.00,60.00,WinterDesignDay
7,-3.0
8,20.1410398217568
9,20.1410398217568
10,20.1410398217554
11,20.1410398217554
12,21.004170462913194
147,21.004170462913194
210,21.004170462911873
273,21.004170462911873
336,50.03
399,452.5058620076999
400,0.029496
403,452.5058620076999
404,0.029496
407,452.5058620077211
408,0.029496
411,452.5058620077211
412,0.029496
413,1807.7622126864571
427,46.703170218797574
428,761.5833123595615
503,1.970589628166019
504,1.970589628166019
505,0.12998674
533,1810.0234480308418
2,1, 1,15, 0,17, 0.00,60.00,WinterDesignDay
7,-3.0
8,20.141039177059987
9,20.141039177059987
10,20.141039177058857
11,20.141039177058857
12,21.004169868706825
147,21.004169868706825
210,21.004169868705734
273,21.004169868705734
336,50.03
399,452.50587144059097
400,0.029496
403,452.50587144059097
404,0.029496
407,452.50587144060876
408,0.029496
411,452.50587144060876
412,0.029496
413,1807.7622505004408
427,46.7031701492084
428,761.5833282900302
503,1.9705896281050372
504,1.9705896281050372
505,0.12998674
533,1810.0234857623996
2,1, 1,15, 0,18, 0.00,60.00,WinterDesignDay
7,-3.0
8,20.141038577429565
9,20.141038577429565
10,20.141038577428784
11,20.141038577428784
12,21.00416931603739
147,21.00416931603739
210,21.004169316036613
273,21.004169316036613
336,50.03
399,452.5058802140934
400,0.029496
403,452.5058802140934
404,0.029496
407,452.50588021410675
408,0.029496
411,452.50588021410675
412,0.029496
413,1807.762285671107
427,46.70317008448372
428,761.5833431069083
503,1.970589628048319
504,1.970589628048319
505,0.12998674
533,1810.0235208564004
2,1, 1,15, 0,19, 0.00,60.00,WinterDesignDay
7,-3.0
8,20.141038019715275
9,20.141038019715275
10,20.141038019715065
11,20.141038019715065
12,21.00416880200136
147,21.00416880200136
210,21.00416880200108
273,21.00416880200108
336,50.03
399,452.5058883742985
400,0.029496
403,452.5058883742985
404,0.029496
407,452.5058883743053
408,0.029496
411,452.5058883743053
412,0.029496
413,1807.762318383216
427,46.703170024283544
428,761.5833568880328
503,1.970589627995565
504,1.970589627995565
505,0.12998674
533,1810.0235534972076
2,1, 1,15, 0,20, 0.00,60.00,WinterDesignDay
7,-3.0
8,20.14103750098699
9,20.14103750098699
10,20.14103750098744
11,20.14103750098744
12,21.004168323898075
147,21.004168323898075
210,21.004168323898405
273,21.004168323898405
336,50.03
399,452.5058959640803
400,0.029496
403,452.5058959640803
404,0.029496
407,452.505895964077
408,0.029496
411,452.505895964077
412,0.029496
413,1807.7623488086429
427,46.70316996829155
428,761.5833697058124
503,1.9705896279464994
504,1.9705896279464994
505,0.12998674
533,1810.0235838563149
2,1, 1,15, 0,21, 0.00,60.00,WinterDesignDay
7,-3.0
8,20.14103701851989
9,20.14103701851989
10,20.141037018520663
11,20.141037018520663
12,21.004167879216084
147,21.004167879216084
210,21.004167879216748
273,21.004167879216748
336,50.03
399,452.5059030233079
400,0.029496
403,452.5059030233079
404,0.029496
407,452.5059030232987
408,0.029496
411,452.5059030232987
412,0.029496
413,1807.7623771072276
427,46.70316991621358
428,761.5833816275847
503,1.9705896279008632
504,1.9705896279008632
505,0.12998674
533,1810.023612093213
2,1, 1,15, 0,22, 0.00,60.00,WinterDesignDay
7,-3.0
8,20.141036569779313
9,20.141036569779313
10,20.14103656978036
11,20.14103656978036
12,21.004167465619258
147,21.004167465619258
210,21.00416746562018
273,21.00416746562018
336,50.03
399,452.5059095890658
400,0.029496
403,452.5059095890658
404,0.029496
407,452.50590958905224
408,0.029496
411,452.50590958905224
412,0.029496
413,1807.7624034276205
427,46.70316986777609
428,761.5833927159747
503,1.9705896278584172
504,1.9705896278584172
505,0.12998674
533,1810.0236383562362
2,1, 1,15, 0,23, 0.00,60.00,WinterDesignDay
7,-3.0
8,20.14103615240765
9,20.14103615240765
10,20.141036152408688
11,20.141036152408688
12,21.00416708093463
147,21.00416708093463
210,21.004167080935588
273,21.004167080935588
336,50.03
399,452.5059156958487
400,0.029496
403,452.5059156958487
404,0.029496
407,452.50591569583315
408,0.029496
411,452.50591569583315
412,0.029496
413,1807.7624279081115
427,46.703169822724576
428,761.5834030292411
503,1.9705896278189385
504,1.9705896278189385
505,0.12998674
533,1810.0236627833638
2,1, 1,15, 0,24, 0.00,60.00,WinterDesignDay
7,-3.0
8,20.14103576421162
9,20.14103576421162
10,20.141035764212454
11,20.141035764212454
12,21.004166723140763
147,21.004166723140763
210,21.00416672314155
273,21.00416672314155
336,50.03
399,452.5059213757445
400,0.029496
403,452.5059213757445
404,0.029496
407,452.50592137573165
408,0.029496
411,452.50592137573165
412,0.029496
413,1807.76245067733
427,46.703169780822314
428,761.5834126215739
503,1.9705896277822192
504,1.9705896277822192
505,0.12998674
533,1810.023685502952
End of Data
 Number of Records Written=         600
