Program Version,EnergyPlus, Version 24.2.0-94a887817b, YMD=2026.03.31 11:03
1,5,Environment Title[],Latitude[deg],Longitude[deg],Time Zone[],Elevation[m]
2,8,Day of Simulation[],Month[],Day of Month[],DST Indicator[1=yes 0=no],Hour[],StartMinute[],EndMinute[],DayType
3,5,Cumulative Day of Simulation[],Month[],Day of Month[],DST Indicator[1=yes 0=no],DayType  ! When Daily Report Variables Requested
4,2,Cumulative Days of Simulation[],Month[]  ! When Monthly Report Variables Requested
5,1,Cumulative Days of Simulation[] ! When Run Period Report Variables Requested
6,1,Calendar Year of Simulation[] ! When Annual Report Variables Requested
7,1,Environment,Site Outdoor Air Drybulb Temperature [C] !Hourly
8,1,Z1,Zone Air Temperature [C] !Hourly
143,1,Z2,Zone Air Temperature [C] !Hourly
206,1,Z3,Zone Air Temperature [C] !Hourly
269,1,Z4,Zone Air Temperature [C] !Hourly
332,1,HOT WATER LOOP,Plant Supply Side Outlet Temperature [C] !Hourly
395,1,Z1 RADIATOR,Baseboard Total Heating Rate [W] !Hourly
396,1,Z1 RADIATOR,Baseboard Hot Water Mass Flow Rate [kg/s] !Hourly
399,1,Z2 RADIATOR,Baseboard Total Heating Rate [W] !Hourly
400,1,Z2 RADIATOR,Baseboard Hot Water Mass Flow Rate [kg/s] !Hourly
403,1,Z3 RADIATOR,Baseboard Total Heating Rate [W] !Hourly
404,1,Z3 RADIATOR,Baseboard Hot Water Mass Flow Rate [kg/s] !Hourly
407,1,Z4 RADIATOR,Baseboard Total Heating Rate [W] !Hourly
408,1,Z4 RADIATOR,Baseboard Hot Water Mass Flow Rate [kg/s] !Hourly
409,1,HEAT PUMP,Heat Pump Load Side Heat Transfer Rate [W] !Hourly
423,1,HEAT PUMP,Heat Pump Load Side Inlet Temperature [C] !Hourly
424,1,HEAT PUMP,Heat Pump Load Side Outlet Temperature [C] !Hourly
425,1,HEAT PUMP,Heat Pump Electricity Rate [W] !Hourly
500,1,SUPPLY PUMP,Pump Electricity Rate [W] !Hourly
501,1,SUPPLY PUMP,Pump Fluid Heat Gain Rate [W] !Hourly
502,1,SUPPLY PUMP,Pump Mass Flow Rate [kg/s] !Hourly
530,1,Baseboard Total Heating Rate All Zones,PythonPlugin:OutputVariable [W] !Hourly
End of Data Dictionary
1,WINTER DESIGN DAY IN (MID) UK,  53.35,  -2.28,   0.00,  69.00
2,1, 1,15, 0, 1, 0.00,60.00,WinterDesignDay
7,-3.0
8,20.99890688474097
143,18.000490701039183
206,18.000490701039183
269,20.99890688474097
332,49.10421684788501
395,601.588969034736
396,0.029496
399,343.39236814733425
400,0.0030929033203124998
403,343.39236814733425
404,0.0030929033203124998
407,601.588969034736
408,0.029496
409,1887.686660723998
423,45.630123531266605
424,49.10421684788501
425,779.3176297066555
500,1.969649761636043
501,1.969649761636043
502,0.12998674
530,1889.9626743641406
2,1, 1,15, 0, 2, 0.00,60.00,WinterDesignDay
7,-3.0
8,20.99900593585069
143,18.000354048312282
206,18.000354048312282
269,20.99900593585069
332,49.10438975649244
395,601.5905540120165
396,0.029496
399,343.3977259582299
400,0.0030929033203124998
403,343.3977259582299
404,0.0030929033203124998
407,601.5905540120165
408,0.029496
409,1887.6651529577568
423,45.63033605934908
424,49.10438975649244
425,779.3117269176669
500,1.9696499476976683
501,1.9696499476976683
502,0.12998674
530,1889.9765599404925
2,1, 1,15, 0, 3, 0.00,60.00,WinterDesignDay
7,-3.0
8,20.999080202062608
143,18.00021637691241
206,18.00021637691241
269,20.999080202062608
332,49.10454754764564
395,601.5922699386945
396,0.029496
399,343.26382178424757
400,0.00309110302734375
403,343.26382178424757
404,0.00309110302734375
407,601.5922699386945
408,0.029496
409,1887.4690356613266
423,45.63085486813893
424,49.10454754764564
425,779.23347691557
500,1.9696504018983965
501,1.9696504018983965
502,0.12998674
530,1889.712183445884
2,1, 1,15, 0, 4, 0.00,60.00,WinterDesignDay
7,-3.0
8,20.99915214377755
143,18.00059780074556
206,18.00059780074556
269,20.99915214377755
332,49.104693099348026
395,601.5937364898429
396,0.029496
399,343.3983234204114
400,0.0030929033203124998
403,343.3983234204114
404,0.0030929033203124998
407,601.5937364898429
408,0.029496
409,1887.7069545809861
423,45.630562508071506
424,49.104693099348026
425,779.3342062939395
500,1.9696501459463562
501,1.9696501459463562
502,0.12998674
530,1889.9841198205083
2,1, 1,15, 0, 5, 0.00,60.00,WinterDesignDay
7,-3.0
8,20.99922471427269
143,17.999995779345507
206,17.999995779345507
269,20.99922471427269
332,49.10482701322414
395,601.5951432384232
396,0.029496
399,343.2707897238404
400,0.00309110302734375
403,343.2707897238404
404,0.00309110302734375
407,601.5951432384232
408,0.029496
409,1887.4529224805344
423,45.63116404195912
424,49.10482701322414
425,779.2316348752004
500,1.96965067257048
501,1.96965067257048
502,0.12998674
530,1889.7318659245273
2,1, 1,15, 0, 6, 0.00,60.00,WinterDesignDay
7,-3.0
8,20.99927323031139
143,18.000584995477304
206,18.000584995477304
269,20.99927323031139
332,49.10495031827877
395,601.5966067111741
396,0.029496
399,343.4016776381103
400,0.0030929033203124998
403,343.4016776381103
404,0.0030929033203124998
407,601.5966067111741
408,0.029496
409,1887.718534839412
423,45.63079845254031
424,49.10495031827877
425,779.3434150840617
500,1.9696503525083393
501,1.9696503525083393
502,0.12998674
530,1889.9965686985688
2,1, 1,15, 0, 7, 0.00,60.00,WinterDesignDay
7,-3.0
8,20.99933398735002
143,17.999967786872062
206,17.999967786872062
269,20.99933398735002
332,49.10506511383781
395,601.5978673092973
396,0.029496
399,343.2737598799227
400,0.00309110302734375
403,343.2737598799227
404,0.00309110302734375
407,601.5978673092973
408,0.029496
409,1887.463533780398
423,45.631382650205936
424,49.10506511383781
425,779.240113974796
500,1.9696508639552464
501,1.9696508639552464
502,0.12998674
530,1889.7432543784398
2,1, 1,15, 0, 8, 0.00,60.00,WinterDesignDay
7,-3.0
8,20.99937361104654
143,18.0002808631002
206,18.0002808631002
269,20.99937361104654
332,49.10517114522236
395,601.5991733667587
396,0.029496
399,343.4089318679475
400,0.0030929033203124998
403,343.4089318679475
404,0.0030929033203124998
407,601.5991733667587
408,0.029496
409,1887.702579850963
423,45.631048689368264
424,49.10517114522236
425,779.3406295316777
500,1.9696505715829147
501,1.9696505715829147
502,0.12998674
530,1890.0162104694123
2,1, 1,15, 0, 9, 0.00,60.00,WinterDesignDay
7,-3.0
8,20.99941207048016
143,18.00026460639446
206,18.00026460639446
269,20.99941207048016
332,49.10527081020432
395,601.6005692541361
396,0.029496
399,343.2714272082414
400,0.00309110302734375
403,343.2714272082414
404,0.00309110302734375
407,601.6005692541361
408,0.029496
409,1887.4986451240327
423,45.631523752579206
424,49.10527081020432
425,779.2581502548873
500,1.969650987486013
501,1.969650987486013
502,0.12998674
530,1889.743992924755
2,1, 1,15, 0,10, 0.00,60.00,WinterDesignDay
7,-3.0
8,20.999461740317123
143,18.000362396254204
206,18.000362396254204
269,20.999461740317123
332,49.1053636872946
395,601.6014242559725
396,0.029496
399,343.41019813681226
400,0.0030929033203124998
403,343.41019813681226
404,0.0030929033203124998
407,601.6014242559725
408,0.029496
409,1887.7090372979121
423,45.63122937395392
424,49.1053636872946
425,779.3466100047334
500,1.9696507297666686
501,1.9696507297666686
502,0.12998674
530,1890.0232447855697
2,1, 1,15, 0,11, 0.00,60.00,WinterDesignDay
7,-3.0
8,20.999492472749345
143,18.000165636689704
206,18.000165636689704
269,20.999492472749345
332,49.10544923546584
395,601.6025188112924
396,0.029496
399,343.2763054727044
400,0.00309110302734375
403,343.2763054727044
404,0.00309110302734375
407,601.6025188112924
408,0.029496
409,1887.5120534515795
423,45.631677523836764
424,49.10544923546584
425,779.2667571419116
500,1.9696511221080344
501,1.9696511221080344
502,0.12998674
530,1889.7576485679936
2,1, 1,15, 0,12, 0.00,60.00,WinterDesignDay
7,-3.0
8,20.999524271563402
143,17.999966201454463
206,17.999966201454463
269,20.999524271563402
332,49.105529528868274
395,601.6036622016935
396,0.029496
399,343.27915954869803
400,0.00309110302734375
403,343.27915954869803
404,0.00309110302734375
407,601.6036622016935
408,0.029496
409,1887.48475117772
423,45.63180808620996
424,49.105529528868274
425,779.2568672941765
500,1.9696512364114298
501,1.9696512364114298
502,0.12998674
530,1889.765643500783
2,1, 1,15, 0,13, 0.00,60.00,WinterDesignDay
7,-3.0
8,20.999551485384217
143,18.000326749891915
206,18.000326749891915
269,20.999551485384217
332,49.105605309044805
395,601.6046443095099
396,0.029496
399,343.41333741889684
400,0.0030929033203124998
403,343.41333741889684
404,0.0030929033203124998
407,601.6046443095099
408,0.029496
409,1887.721139006121
423,45.63144875802269
424,49.105605309044805
425,779.3557656468817
500,1.9696509218306537
501,1.9696509218306537
502,0.12998674
530,1890.0359634568135
2,1, 1,15, 0,14, 0.00,60.00,WinterDesignDay
7,-3.0
8,20.999574871571923
143,18.000168240603124
206,18.000168240603124
269,20.999574871571923
332,49.10567666298442
395,601.6056133505448
396,0.029496
399,343.2788790443997
400,0.00309110302734375
403,343.2788790443997
404,0.00309110302734375
407,601.6056133505448
408,0.029496
409,1887.522834223911
423,45.63188514556822
424,49.10567666298442
425,779.2751226767879
500,1.9696513038745285
501,1.9696513038745285
502,0.12998674
530,1889.7689847898891
2,1, 1,15, 0,15, 0.00,60.00,WinterDesignDay
7,-3.0
8,20.999603011837127
143,17.999988081637476
206,17.999988081637476
269,20.999603011837127
332,49.1057438495762
395,601.6065668051862
396,0.029496
399,343.28134054067937
400,0.00309110302734375
403,343.28134054067937
404,0.00309110302734375
407,601.6065668051862
408,0.029496
409,1887.4944008867185
423,45.63200468146104
424,49.1057438495762
425,779.2645402188202
500,1.9696514085245946
501,1.9696514085245946
502,0.12998674
530,1889.775814691731
2,1, 1,15, 0,16, 0.00,60.00,WinterDesignDay
7,-3.0
8,20.999628156164658
143,18.000359741012332
206,18.000359741012332
269,20.999628156164658
332,49.105807073409636
395,601.6073299507196
396,0.029496
399,343.41523392122116
400,0.0030929033203124998
403,343.41523392122116
404,0.0030929033203124998
407,601.6073299507196
408,0.029496
409,1887.7297939737525
423,45.63163462229893
424,49.105807073409636
425,779.3628121985896
500,1.969651084549124
501,1.969651084549124
502,0.12998674
530,1890.0451277438817
2,1, 1,15, 0,17, 0.00,60.00,WinterDesignDay
7,-3.0
8,20.99965011481792
143,18.000209092295513
206,18.000209092295513
269,20.99965011481792
332,49.105866188753296
395,601.608069482243
396,0.029496
399,343.28054996577976
400,0.00309110302734375
403,343.28054996577976
404,0.00309110302734375
407,601.608069482243
408,0.029496
409,1887.5305895461686
423,45.632060429805094
424,49.105866188753296
425,779.2815867790843
500,1.9696514573305581
501,1.9696514573305581
502,0.12998674
530,1889.7772388960452
2,1, 1,15, 0,18, 0.00,60.00,WinterDesignDay
7,-3.0
8,20.999677009968604
143,18.000034200135673
206,18.000034200135673
269,20.999677009968604
332,49.10592136135446
395,601.6087924535221
396,0.029496
399,343.2828140086507
400,0.00309110302734375
403,343.2828140086507
404,0.00309110302734375
407,601.6087924535221
408,0.029496
409,1887.5013070373843
423,45.63216950959443
424,49.10592136135446
425,779.2704469035748
500,1.9696515528266376
501,1.9696515528266376
502,0.12998674
530,1889.7832129243457
2,1, 1,15, 0,19, 0.00,60.00,WinterDesignDay
7,-3.0
8,20.99970087544594
143,18.00040924519697
206,18.00040924519697
269,20.99970087544594
332,49.10597277056556
395,601.609329323358
396,0.029496
399,343.41653370355743
400,0.0030929033203124998
403,343.41653370355743
404,0.0030929033203124998
407,601.609329323358
408,0.029496
409,1887.7359100301278
423,45.631789092789134
424,49.10597277056556
425,779.3681896835451
500,1.9696512197833185
501,1.9696512197833185
502,0.12998674
530,1890.0517260538309
2,1, 1,15, 0,20, 0.00,60.00,WinterDesignDay
7,-3.0
8,20.999721414793882
143,18.000260964344527
206,18.000260964344527
269,20.999721414793882
332,49.10602027869956
395,601.6098495851282
396,0.029496
399,343.2816934263976
400,0.00309110302734375
403,343.2816934263976
404,0.00309110302734375
407,601.6098495851282
408,0.029496
409,1887.53595767819
423,45.63220465888668
424,49.10602027869956
425,779.2864553818941
500,1.9696515835987602
501,1.9696515835987602
502,0.12998674
530,1889.783086023052
2,1, 1,15, 0,21, 0.00,60.00,WinterDesignDay
7,-3.0
8,20.999746705140055
143,18.000087497000727
206,18.000087497000727
269,20.999746705140055
332,49.106064074950325
395,601.6103619391315
396,0.029496
399,343.28381325940853
400,0.00309110302734375
403,343.28381325940853
404,0.00309110302734375
407,601.6103619391315
408,0.029496
409,1887.5059782924195
423,45.632303646928975
424,49.106064074950325
425,779.2748319445955
500,1.9696516702598301
501,1.9696516702598301
502,0.12998674
530,1889.7883503970802
2,1, 1,15, 0,22, 0.00,60.00,WinterDesignDay
7,-3.0
8,20.999768772902083
143,18.000463207202216
206,18.000463207202216
269,20.999768772902083
332,49.1061043683729
395,601.6106979857202
396,0.029496
399,343.4174008454104
400,0.0030929033203124998
403,343.4174008454104
404,0.0030929033203124998
407,601.6106979857202
408,0.029496
409,1887.7399253795552
423,45.63191332118373
424,49.1061043683729
425,779.3721128773914
500,1.9696513285414956
501,1.9696513285414956
502,0.12998674
530,1890.0561976622614
2,1, 1,15, 0,23, 0.00,60.00,WinterDesignDay
7,-3.0
8,20.99978732875927
143,18.000315070444856
206,18.000315070444856
269,20.99978732875927
332,49.10614105216496
395,601.6110276039946
396,0.029496
399,343.28243773929387
400,0.00309110302734375
403,343.28243773929387
404,0.00309110302734375
407,601.6110276039946
408,0.029496
409,1887.5393584751146
423,45.63231919244954
424,49.10614105216496
425,779.2899382915117
500,1.969651683869445
501,1.969651683869445
502,0.12998674
530,1889.7869306865766
2,1, 1,15, 0,24, 0.00,60.00,WinterDesignDay
7,-3.0
8,20.99981046755568
143,18.000141273829897
206,18.000141273829897
269,20.99981046755568
332,49.106174344852136
395,601.611359889549
396,0.029496
399,343.2844438274811
400,0.00309110302734375
403,343.2844438274811
404,0.00309110302734375
407,601.611359889549
408,0.029496
409,1887.5088034291969
423,45.63240873483729
424,49.106174344852136
425,779.2778963664041
500,1.9696517622611351
501,1.9696517622611351
502,0.12998674
530,1889.79160743406
End of Data
 Number of Records Written=         528
