Program Version,EnergyPlus, Version 24.2.0-94a887817b, YMD=2025.06.23 17:02
1,5,Environment Title[],Latitude[deg],Longitude[deg],Time Zone[],Elevation[m]
2,8,Day of Simulation[],Month[],Day of Month[],DST Indicator[1=yes 0=no],Hour[],StartMinute[],EndMinute[],DayType
3,5,Cumulative Day of Simulation[],Month[],Day of Month[],DST Indicator[1=yes 0=no],DayType  ! When Daily Report Variables Requested
4,2,Cumulative Days of Simulation[],Month[]  ! When Monthly Report Variables Requested
5,1,Cumulative Days of Simulation[] ! When Run Period Report Variables Requested
6,1,Calendar Year of Simulation[] ! When Annual Report Variables Requested
7,1,Environment,Site Outdoor Air Drybulb Temperature [C] !Hourly
8,1,EXT SURFACE EAST SOUTH,Surface Inside Face Temperature [C] !Hourly
9,1,EXT SURFACE EAST SOUTH,Surface Outside Face Temperature [C] !Hourly
10,1,EXT SURFACE EAST SOUTH,Surface Inside Face Adjacent Air Temperature [C] !Hourly
11,1,EXT SURFACE EAST SOUTH,Surface Outside Face Outdoor Air Drybulb Temperature [C] !Hourly
12,1,EXT SURFACE EAST SOUTH,Surface Average Face Conduction Heat Transfer Rate [W] !Hourly
13,1,EXT SURFACE SOUTH EAST,Surface Inside Face Temperature [C] !Hourly
14,1,EXT SURFACE SOUTH EAST,Surface Outside Face Temperature [C] !Hourly
15,1,EXT SURFACE SOUTH EAST,Surface Inside Face Adjacent Air Temperature [C] !Hourly
16,1,EXT SURFACE SOUTH EAST,Surface Outside Face Outdoor Air Drybulb Temperature [C] !Hourly
17,1,EXT SURFACE SOUTH EAST,Surface Average Face Conduction Heat Transfer Rate [W] !Hourly
18,1,EXT SURFACE ROOF SE,Surface Inside Face Temperature [C] !Hourly
19,1,EXT SURFACE ROOF SE,Surface Outside Face Temperature [C] !Hourly
20,1,EXT SURFACE ROOF SE,Surface Inside Face Adjacent Air Temperature [C] !Hourly
21,1,EXT SURFACE ROOF SE,Surface Outside Face Outdoor Air Drybulb Temperature [C] !Hourly
22,1,EXT SURFACE ROOF SE,Surface Average Face Conduction Heat Transfer Rate [W] !Hourly
23,1,PZ1Z2,Surface Inside Face Temperature [C] !Hourly
24,1,PZ1Z2,Surface Outside Face Temperature [C] !Hourly
25,1,PZ1Z2,Surface Inside Face Adjacent Air Temperature [C] !Hourly
26,1,PZ1Z2,Surface Average Face Conduction Heat Transfer Rate [W] !Hourly
27,1,PZ1Z3,Surface Inside Face Temperature [C] !Hourly
28,1,PZ1Z3,Surface Outside Face Temperature [C] !Hourly
29,1,PZ1Z3,Surface Inside Face Adjacent Air Temperature [C] !Hourly
30,1,PZ1Z3,Surface Average Face Conduction Heat Transfer Rate [W] !Hourly
31,1,EXT SURFACE FLOOR SE,Surface Inside Face Temperature [C] !Hourly
32,1,EXT SURFACE FLOOR SE,Surface Outside Face Temperature [C] !Hourly
33,1,EXT SURFACE FLOOR SE,Surface Inside Face Adjacent Air Temperature [C] !Hourly
34,1,EXT SURFACE FLOOR SE,Surface Average Face Conduction Heat Transfer Rate [W] !Hourly
35,1,EXT SURFACE SOUTH WEST,Surface Inside Face Temperature [C] !Hourly
36,1,EXT SURFACE SOUTH WEST,Surface Outside Face Temperature [C] !Hourly
37,1,EXT SURFACE SOUTH WEST,Surface Inside Face Adjacent Air Temperature [C] !Hourly
38,1,EXT SURFACE SOUTH WEST,Surface Outside Face Outdoor Air Drybulb Temperature [C] !Hourly
39,1,EXT SURFACE SOUTH WEST,Surface Average Face Conduction Heat Transfer Rate [W] !Hourly
40,1,EXT SURFACE WEST SOUTH,Surface Inside Face Temperature [C] !Hourly
41,1,EXT SURFACE WEST SOUTH,Surface Outside Face Temperature [C] !Hourly
42,1,EXT SURFACE WEST SOUTH,Surface Inside Face Adjacent Air Temperature [C] !Hourly
43,1,EXT SURFACE WEST SOUTH,Surface Outside Face Outdoor Air Drybulb Temperature [C] !Hourly
44,1,EXT SURFACE WEST SOUTH,Surface Average Face Conduction Heat Transfer Rate [W] !Hourly
45,1,EXT SURFACE ROOF SW,Surface Inside Face Temperature [C] !Hourly
46,1,EXT SURFACE ROOF SW,Surface Outside Face Temperature [C] !Hourly
47,1,EXT SURFACE ROOF SW,Surface Inside Face Adjacent Air Temperature [C] !Hourly
48,1,EXT SURFACE ROOF SW,Surface Outside Face Outdoor Air Drybulb Temperature [C] !Hourly
49,1,EXT SURFACE ROOF SW,Surface Average Face Conduction Heat Transfer Rate [W] !Hourly
50,1,PZ2Z1,Surface Inside Face Temperature [C] !Hourly
51,1,PZ2Z1,Surface Outside Face Temperature [C] !Hourly
52,1,PZ2Z1,Surface Inside Face Adjacent Air Temperature [C] !Hourly
53,1,PZ2Z1,Surface Average Face Conduction Heat Transfer Rate [W] !Hourly
54,1,PZ2Z4,Surface Inside Face Temperature [C] !Hourly
55,1,PZ2Z4,Surface Outside Face Temperature [C] !Hourly
56,1,PZ2Z4,Surface Inside Face Adjacent Air Temperature [C] !Hourly
57,1,PZ2Z4,Surface Average Face Conduction Heat Transfer Rate [W] !Hourly
58,1,EXT SURFACE FLOOR SW,Surface Inside Face Temperature [C] !Hourly
59,1,EXT SURFACE FLOOR SW,Surface Outside Face Temperature [C] !Hourly
60,1,EXT SURFACE FLOOR SW,Surface Inside Face Adjacent Air Temperature [C] !Hourly
61,1,EXT SURFACE FLOOR SW,Surface Average Face Conduction Heat Transfer Rate [W] !Hourly
62,1,EXT SURFACE NORTH EAST,Surface Inside Face Temperature [C] !Hourly
63,1,EXT SURFACE NORTH EAST,Surface Outside Face Temperature [C] !Hourly
64,1,EXT SURFACE NORTH EAST,Surface Inside Face Adjacent Air Temperature [C] !Hourly
65,1,EXT SURFACE NORTH EAST,Surface Outside Face Outdoor Air Drybulb Temperature [C] !Hourly
66,1,EXT SURFACE NORTH EAST,Surface Average Face Conduction Heat Transfer Rate [W] !Hourly
67,1,EXT SURFACE EAST NORTH,Surface Inside Face Temperature [C] !Hourly
68,1,EXT SURFACE EAST NORTH,Surface Outside Face Temperature [C] !Hourly
69,1,EXT SURFACE EAST NORTH,Surface Inside Face Adjacent Air Temperature [C] !Hourly
70,1,EXT SURFACE EAST NORTH,Surface Outside Face Outdoor Air Drybulb Temperature [C] !Hourly
71,1,EXT SURFACE EAST NORTH,Surface Average Face Conduction Heat Transfer Rate [W] !Hourly
72,1,EXT SURFACE ROOF NE,Surface Inside Face Temperature [C] !Hourly
73,1,EXT SURFACE ROOF NE,Surface Outside Face Temperature [C] !Hourly
74,1,EXT SURFACE ROOF NE,Surface Inside Face Adjacent Air Temperature [C] !Hourly
75,1,EXT SURFACE ROOF NE,Surface Outside Face Outdoor Air Drybulb Temperature [C] !Hourly
76,1,EXT SURFACE ROOF NE,Surface Average Face Conduction Heat Transfer Rate [W] !Hourly
77,1,PZ3Z1,Surface Inside Face Temperature [C] !Hourly
78,1,PZ3Z1,Surface Outside Face Temperature [C] !Hourly
79,1,PZ3Z1,Surface Inside Face Adjacent Air Temperature [C] !Hourly
80,1,PZ3Z1,Surface Average Face Conduction Heat Transfer Rate [W] !Hourly
81,1,PZ3Z4,Surface Inside Face Temperature [C] !Hourly
82,1,PZ3Z4,Surface Outside Face Temperature [C] !Hourly
83,1,PZ3Z4,Surface Inside Face Adjacent Air Temperature [C] !Hourly
84,1,PZ3Z4,Surface Average Face Conduction Heat Transfer Rate [W] !Hourly
85,1,EXT SURFACE FLOOR NE,Surface Inside Face Temperature [C] !Hourly
86,1,EXT SURFACE FLOOR NE,Surface Outside Face Temperature [C] !Hourly
87,1,EXT SURFACE FLOOR NE,Surface Inside Face Adjacent Air Temperature [C] !Hourly
88,1,EXT SURFACE FLOOR NE,Surface Average Face Conduction Heat Transfer Rate [W] !Hourly
89,1,EXT SURFACE NORTH WEST,Surface Inside Face Temperature [C] !Hourly
90,1,EXT SURFACE NORTH WEST,Surface Outside Face Temperature [C] !Hourly
91,1,EXT SURFACE NORTH WEST,Surface Inside Face Adjacent Air Temperature [C] !Hourly
92,1,EXT SURFACE NORTH WEST,Surface Outside Face Outdoor Air Drybulb Temperature [C] !Hourly
93,1,EXT SURFACE NORTH WEST,Surface Average Face Conduction Heat Transfer Rate [W] !Hourly
94,1,EXT SURFACE WEST NORTH,Surface Inside Face Temperature [C] !Hourly
95,1,EXT SURFACE WEST NORTH,Surface Outside Face Temperature [C] !Hourly
96,1,EXT SURFACE WEST NORTH,Surface Inside Face Adjacent Air Temperature [C] !Hourly
97,1,EXT SURFACE WEST NORTH,Surface Outside Face Outdoor Air Drybulb Temperature [C] !Hourly
98,1,EXT SURFACE WEST NORTH,Surface Average Face Conduction Heat Transfer Rate [W] !Hourly
99,1,EXT SURFACE ROOF NW,Surface Inside Face Temperature [C] !Hourly
100,1,EXT SURFACE ROOF NW,Surface Outside Face Temperature [C] !Hourly
101,1,EXT SURFACE ROOF NW,Surface Inside Face Adjacent Air Temperature [C] !Hourly
102,1,EXT SURFACE ROOF NW,Surface Outside Face Outdoor Air Drybulb Temperature [C] !Hourly
103,1,EXT SURFACE ROOF NW,Surface Average Face Conduction Heat Transfer Rate [W] !Hourly
104,1,PZ4Z2,Surface Inside Face Temperature [C] !Hourly
105,1,PZ4Z2,Surface Outside Face Temperature [C] !Hourly
106,1,PZ4Z2,Surface Inside Face Adjacent Air Temperature [C] !Hourly
107,1,PZ4Z2,Surface Average Face Conduction Heat Transfer Rate [W] !Hourly
108,1,PZ4Z3,Surface Inside Face Temperature [C] !Hourly
109,1,PZ4Z3,Surface Outside Face Temperature [C] !Hourly
110,1,PZ4Z3,Surface Inside Face Adjacent Air Temperature [C] !Hourly
111,1,PZ4Z3,Surface Average Face Conduction Heat Transfer Rate [W] !Hourly
112,1,EXT SURFACE FLOOR NW,Surface Inside Face Temperature [C] !Hourly
113,1,EXT SURFACE FLOOR NW,Surface Outside Face Temperature [C] !Hourly
114,1,EXT SURFACE FLOOR NW,Surface Inside Face Adjacent Air Temperature [C] !Hourly
115,1,EXT SURFACE FLOOR NW,Surface Average Face Conduction Heat Transfer Rate [W] !Hourly
116,1,Z1,Zone Air Temperature [C] !Hourly
117,1,Z1,Zone Air System Sensible Heating Energy [J] !Hourly
251,1,Z1,Zone Predicted Sensible Load to Setpoint Heat Transfer Rate [W] !Hourly
252,1,Z2,Zone Air Temperature [C] !Hourly
253,1,Z2,Zone Air System Sensible Heating Energy [J] !Hourly
315,1,Z2,Zone Predicted Sensible Load to Setpoint Heat Transfer Rate [W] !Hourly
316,1,Z3,Zone Air Temperature [C] !Hourly
317,1,Z3,Zone Air System Sensible Heating Energy [J] !Hourly
379,1,Z3,Zone Predicted Sensible Load to Setpoint Heat Transfer Rate [W] !Hourly
380,1,Z4,Zone Air Temperature [C] !Hourly
381,1,Z4,Zone Air System Sensible Heating Energy [J] !Hourly
443,1,Z4,Zone Predicted Sensible Load to Setpoint Heat Transfer Rate [W] !Hourly
542,1,Z1 PURCHASED AIR,Zone Ideal Loads Zone Total Heating Rate [W] !Hourly
545,1,Z2 PURCHASED AIR,Zone Ideal Loads Zone Total Heating Rate [W] !Hourly
548,1,Z3 PURCHASED AIR,Zone Ideal Loads Zone Total Heating Rate [W] !Hourly
551,1,Z4 PURCHASED AIR,Zone Ideal Loads Zone Total Heating Rate [W] !Hourly
446,1,DistrictHeatingWater:Facility [J] !Hourly
End of Data Dictionary
1,SUMMER DESIGN DAY IN SALFORD ENERGY HOUSE 1.0 (01-01:31-12) JUN HVAC Sizing Pass 1,  53.35,  -2.28,   0.00,  69.00
2,1, 6,15, 1, 1, 0.00,60.00,SummerDesignDay
7,18.983
8,21.089825311282254
9,19.092906644410686
10,21.523085501828763
11,18.985274999051487
12,-12.32976310331215
13,21.089825311282254
14,19.092906644410686
15,21.523085501828763
16,18.985274999051487
17,-12.32976310331215
18,21.177803117724164
19,19.090322440873308
20,21.523085501828763
21,18.97780000310887
22,-22.415529945021483
23,21.737092866238598
24,21.73709286473733
25,21.523085501828763
26,-1.8215339647742468e-7
27,21.737092869615296
28,21.7370928700404
29,21.523085501828763
30,5.158105975677785e-8
31,21.523658442933307
32,18.0
33,21.523085501828763
34,-0.0005554535476545118
35,21.08982530352964
36,19.09290664401389
37,21.52308549249757
38,18.985274999051487
39,-12.329763057966776
40,21.08982530352964
41,19.09290664401389
42,21.52308549249757
43,18.985274999051487
44,-12.329763057966776
45,21.17780310964985
46,19.090322440459715
47,21.52308549249757
48,18.97780000310887
49,-22.415529862891166
50,21.73709286473733
51,21.737092866238598
52,21.52308549249757
53,1.8215658326159456e-7
54,21.73709286285097
55,21.737092863276075
56,21.52308549249757
57,5.1580700266562474e-8
58,21.523658433592605
59,18.0
60,21.52308549249757
61,-0.0005554535461820856
62,21.089825313477466
63,19.09290664452304
64,21.523085504470956
65,18.985274999051487
66,-12.329763116152034
67,21.089825313477466
68,19.09290664452304
69,21.523085504470956
70,18.985274999051487
71,-12.329763116152034
72,21.177803120010466
73,19.09032244099042
74,21.523085504470956
75,18.97780000310887
76,-22.415529968277287
77,21.7370928700404
78,21.737092869615296
79,21.523085504470956
80,-5.157792204446565e-8
81,21.737092868154036
82,21.737092866652773
83,21.523085504470956
84,-1.82152857020057e-7
85,21.5236584455782
86,18.0
87,21.523085504470956
88,-0.0005554535480714399
89,21.08982530572485
90,19.092906644126245
91,21.52308549513977
92,18.985274999051487
93,-12.32976307080666
94,21.08982530572485
95,19.092906644126245
96,21.52308549513977
97,18.985274999051487
98,-12.32976307080666
99,21.177803111936157
100,19.09032244057683
101,21.52308549513977
102,18.97780000310887
103,-22.415529886147006
104,21.737092863276075
105,21.73709286285097
106,21.52308549513977
107,-5.157744797923414e-8
108,21.737092866652773
109,21.737092868154036
110,21.52308549513977
111,1.8215610919636305e-7
112,21.523658436237497
113,18.0
114,21.52308549513977
115,-0.0005554535465990146
116,21.404019711057927
117,0.0
251,-379.187552302569
252,21.40401970334428
253,0.0
315,-379.187548368139
316,21.404019713242022
317,0.0
379,-379.18755341613246
380,21.40401970552837
381,0.0
443,-379.1875494817041
542,0.0
545,0.0
548,0.0
551,0.0
446,0.0
2,1, 6,15, 1, 2, 0.00,60.00,SummerDesignDay
7,18.622
8,20.638749928817138
9,18.727235829761685
10,21.053710756736677
11,18.624274999051487
12,-11.801174573277098
13,20.638749928817138
14,18.727235829761685
15,21.053710756736677
16,18.624274999051487
17,-11.801174573277098
18,20.72299158975218
19,18.72446044207851
20,21.053710756736677
21,18.61680000310887
22,-21.45808685974489
23,21.264052292361566
24,21.264052291660814
25,21.053710756736677
26,-8.502467641058331e-8
27,21.264052293943035
28,21.26405229414142
29,21.053710756736677
30,2.4072657200946423e-8
31,21.05426409889584
32,18.0
33,21.053710756736677
34,-0.0004814603505648613
35,20.638749925195615
36,18.72723582957633
37,21.053710752377732
38,18.624274999051487
39,-11.801174552094626
40,20.638749925195615
41,18.72723582957633
42,21.053710752377732
43,18.624274999051487
44,-11.801174552094626
45,20.722991585980377
46,18.724460441885306
47,21.053710752377732
48,18.61680000310887
49,-21.458086821378746
50,21.264052291660814
51,21.264052292361566
52,21.053710752377732
53,8.502783044317397e-8
54,21.264052290777258
55,21.26405229097564
56,21.053710752377732
57,2.40726245603895e-8
58,21.054264094532456
59,18.0
60,21.053710752377732
61,-0.00048146034987703735
62,20.638749929842383
63,18.72723582981416
64,21.053710757970684
65,18.624274999051487
66,-11.801174579273827
67,20.638749929842383
68,18.72723582981416
69,21.053710757970684
70,18.624274999051487
71,-11.801174579273827
72,20.722991590819966
73,18.724460442133203
74,21.053710757970684
75,18.61680000310887
76,-21.458086870606206
77,21.26405229414142
78,21.264052293943035
79,21.053710757970684
80,-2.406955201816885e-8
81,21.26405229325786
82,21.264052292557103
83,21.053710757970684
84,-8.502479076355485e-8
85,21.0542641001311
86,18.0
87,21.053710757970684
88,-0.00048146035075958247
89,20.63874992622086
90,18.727235829628803
91,21.053710753611735
92,18.624274999051487
93,-11.801174558091336
94,20.63874992622086
95,18.727235829628803
96,21.053710753611735
97,18.624274999051487
98,-11.801174558091336
99,20.722991587048163
100,18.72446044194
101,21.053710753611735
102,18.61680000310887
103,-21.458086832240056
104,21.26405229097564
105,21.264052290777258
106,21.053710753611735
107,-2.40694866260327e-8
108,21.264052292557103
109,21.26405229325786
110,21.053710753611735
111,8.502792847586704e-8
112,21.054264095767717
113,18.0
114,21.053710753611735
115,-0.000481460350071758
116,20.974675232483477
117,40797.319378642285
251,-68.02394453166039
252,20.974675229890988
253,40797.320589635885
315,-68.02394269089564
316,20.974675233217372
317,40797.31903582212
379,-68.02394505267443
380,20.974675230624882
381,40797.32024681651
443,-68.02394321190741
542,11.376122796478432
545,11.376123189509883
548,11.376122705263056
551,11.37612309829481
446,163816.17044236627
2,1, 6,15, 1, 3, 0.00,60.00,SummerDesignDay
7,18.3655
8,20.522357482304642
9,18.47771665212636
10,20.967947278637897
11,18.367774999051488
12,-12.627818239468157
13,20.522357482304642
14,18.47771665212636
15,20.967947278637897
16,18.367774999051488
17,-12.627818239468157
18,20.613055007962966
19,18.4752530226271
20,20.967947278637897
21,18.360300003108872
22,-22.962041049491006
23,21.009680581692265
24,21.00968058170698
25,20.967947278637897
26,2.624406649463784e-9
27,21.00968058187927
28,21.009680581875102
29,20.967947278637897
30,-7.407230271858078e-10
31,20.958605932829897
32,18.0
33,20.967947278637897
34,-0.00046638123079091956
35,20.52235748268362
36,18.47771665214544
37,20.96794727911535
38,18.367774999051488
39,-12.627818241720913
40,20.52235748268362
41,18.47771665214544
42,20.96794727911535
43,18.367774999051488
44,-12.627818241720913
45,20.61305500836719
46,18.475253022647067
47,20.96794727911535
48,18.360300003108872
49,-22.96204105367255
50,21.00968058170698
51,21.009680581692265
52,20.96794727911535
53,-2.62136693341547e-9
54,21.009680581602492
55,21.00968058159833
56,20.96794727911535
57,-7.402654392252295e-10
58,20.958605932991347
59,18.0
60,20.96794727911535
61,-0.0004663812308163701
62,20.522357482197354
63,18.47771665212096
64,20.967947278502734
65,18.367774999051488
66,-12.627818238830393
67,20.522357482197354
68,18.47771665212096
69,20.967947278502734
70,18.367774999051488
71,-12.627818238830393
72,20.613055007848537
73,18.47525302262145
74,20.967947278502734
75,18.360300003108872
76,-22.962041048307235
77,21.009680581875102
78,21.00968058187927
79,20.967947278502734
80,7.437627215500786e-10
81,21.00968058177062
82,21.009680581785332
83,20.967947278502734
84,2.624014477925485e-9
85,20.95860593278418
86,18.0
87,20.967947278502734
88,-0.000466381230783713
89,20.522357482576332
90,18.47771665214004
91,20.967947278980187
92,18.367774999051488
93,-12.627818241083176
94,20.522357482576332
95,18.47771665214004
96,20.967947278980187
97,18.367774999051488
98,-12.627818241083176
99,20.61305500825276
100,18.475253022641414
101,20.967947278980187
102,18.360300003108872
103,-22.962041052488814
104,21.00968058159833
105,21.009680581602492
106,20.967947278980187
107,7.432234428589313e-10
108,21.009680581785332
109,21.00968058177062
110,20.967947278980187
111,-2.620876673672945e-9
112,20.958605932945638
113,18.0
114,20.967947278980187
115,-0.0004663812308091642
116,20.99017889274367
117,182106.80178398686
251,50.62502115624784
252,20.990178892877566
253,182106.80150373033
315,50.62502107758769
316,20.990178892705764
317,182106.80186331226
379,50.62502117851227
380,20.99017889283966
381,182106.8015830549
443,50.62502109985189
542,50.76485654554939
545,50.76485669095301
548,50.76485658837577
551,50.764856733779524
446,731013.9356111677
2,1, 6,15, 1, 4, 0.00,60.00,SummerDesignDay
7,18.1375
8,20.511259969472803
9,18.26071659623951
10,20.999399169237783
11,18.139774999051486
12,-13.898122493383333
13,20.511259969472803
14,18.26071659623951
15,20.999399169237783
16,18.139774999051486
17,-13.898122493383333
18,20.610307795888495
19,18.258719226116504
20,20.999399169237783
21,18.13230000310887
22,-25.25585338212314
23,21.000285221444102
24,21.000285221444067
25,20.999399169237783
26,-3.742428188093644e-12
27,21.000285221449715
28,21.000285221449726
29,20.999399169237783
30,2.9579893222331233e-12
31,20.995489513566376
32,18.0
33,20.999399169237783
34,-0.0004721953913011036
35,20.511259969484197
36,18.26071659623995
37,20.999399169247667
38,18.139774999051486
39,-13.898122493450323
40,20.511259969560584
41,18.260716596778675
42,20.999399169247667
43,18.139774999051486
44,-13.898122490573712
45,20.61030779589914
46,18.25871922611696
47,20.999399169247667
48,18.13230000310887
49,-25.255853382231532
50,21.000285221444067
51,21.000285221444102
52,20.999399169247667
53,6.847501027567454e-12
54,21.000285221440933
55,21.000285221440944
56,20.999399169247667
57,3.2521543509404782e-12
58,20.99548951361742
59,18.0
60,20.999399169247667
61,-0.00047219539130915014
62,20.511259969531526
63,18.260716596676247
64,20.999399169234984
65,18.139774999051486
66,-13.898122491031682
67,20.51125996946958
68,18.260716596239384
69,20.999399169234984
70,18.139774999051486
71,-13.898122493364387
72,20.61030779588548
73,18.258719226116373
74,20.999399169234984
75,18.13230000310887
76,-25.255853382092447
77,21.000285221449726
78,21.000285221449715
79,20.999399169234984
80,9.805491921893728e-14
81,21.00028522144659
82,21.000285221446553
83,20.999399169234984
84,-3.709743992032222e-12
85,20.995489513551917
86,18.0
87,20.999399169234984
88,-0.0004721953912988243
89,20.51125996954291
90,18.260716596676687
91,20.999399169244864
92,18.139774999051486
93,-13.898122491098615
94,20.511259969557354
95,18.26071659677855
96,20.999399169244864
97,18.139774999051486
98,-13.898122490554714
99,20.610307795896123
100,18.258719226116835
101,20.999399169244864
102,18.13230000310887
103,-25.25585338220079
104,21.000285221440944
105,21.000285221440933
106,20.999399169244864
107,-1.4708286671938353e-13
108,21.000285221446553
109,21.00028522144659
110,20.999399169244864
111,6.83115846875082e-12
112,20.995489513602962
113,18.0
114,20.999399169244864
115,-0.0004721953913068709
116,20.999712880218873
117,190352.92802061207
251,52.87637672710366
252,20.999712880223317
253,190352.92800781663
315,52.87637672353958
316,20.999712880217615
317,190352.92801571626
379,52.87637672574647
380,20.999712880222056
381,190352.92800292734
443,52.876376722184204
542,53.002930290854096
545,53.00293049025922
548,53.00293030804673
551,53.00293050745405
446,763242.1977478107
2,1, 6,15, 1, 5, 0.00,60.00,SummerDesignDay
7,17.957
8,20.48044729149986
9,18.087823692585985
10,20.999967645767615
11,17.959274999051487
12,-14.77465478186722
13,20.48044729149986
14,18.087823692585985
15,20.999967645767615
16,17.959274999051487
17,-14.77465478186722
18,20.58606441985352
19,18.08615508347831
20,20.999967645767615
21,17.951800003108872
22,-26.847225170082396
23,21.000016239318946
24,21.000016239318946
25,20.999967645767615
26,1.5688783686898175e-12
27,21.00001623931918
28,21.00001623931918
29,20.999967645767615
30,1.8793855089804107e-12
31,20.999276727561046
32,18.0
33,20.999967645767615
34,-0.0004727923905514954
35,20.48044729150036
36,18.087823692586007
37,20.999967645768017
38,17.959274999051487
39,-14.77465478187015
40,20.48044750478477
41,18.087825064290083
42,20.999967645768017
43,17.959274999051487
44,-14.77464760473309
45,20.586064419853976
46,18.08615508347833
47,20.999967645768017
48,17.951800003108872
49,-26.84722517008702
50,21.000016239318946
51,21.000016239318946
52,20.999967645768017
53,1.5688783686898175e-12
54,21.00001623931881
55,21.000016239318814
56,20.999967645768017
57,1.9120704944765397e-12
58,20.999276727569153
59,18.0
60,20.999967645768017
61,-0.00047279239055277305
62,20.480447414618816
63,18.087824478966134
64,20.999967645767505
65,17.959274999051487
66,-14.774650673917538
67,20.48044729149972
68,18.087823692585978
69,20.999967645767505
70,17.959274999051487
71,-14.774654781866378
72,20.586064419853393
73,18.086155083478307
74,20.999967645767505
75,17.951800003108872
76,-26.84722517008108
77,21.00001623931918
78,21.00001623931918
79,20.999967645767505
80,1.1276313033553673e-12
81,21.000016239319045
82,21.00001623931905
83,20.999967645767505
84,1.6505907595853065e-12
85,20.99927672755875
86,18.0
87,20.999967645767505
88,-0.00047279239055113254
89,20.48044741461931
90,18.08782447896615
91,20.9999676457679
92,17.959274999051487
93,-14.774650673920467
94,20.48044750478462
95,18.08782506429008
96,20.9999676457679
97,17.959274999051487
98,-14.774647604732216
99,20.58606441985384
100,18.086155083478324
101,20.9999676457679
102,17.951800003108872
103,-26.84722517008567
104,21.000016239318814
105,21.00001623931881
106,20.9999676457679
107,1.1112888427945548e-12
108,21.00001623931905
109,21.000016239319045
110,20.9999676457679
111,1.5198509124684807e-12
112,20.99927672756686
113,18.0
114,20.9999676457679
115,-0.0004727923905524109
116,20.999983749287765
117,202212.85327409673
251,56.170267920626884
252,20.99998374928795
253,202212.83154477575
315,56.170261884702086
316,20.99998374928771
317,202212.84073122253
379,56.17026443649411
380,20.999983749287892
381,202212.81900190073
443,56.17025840056908
542,56.28590677245762
545,56.285900910165346
548,56.285903298437816
551,56.28589743614564
446,810516.990301943
2,1, 6,15, 1, 6, 0.00,60.00,SummerDesignDay
7,17.994999999999997
8,20.482589108305042
9,18.124041965189527
10,20.999997641091422
11,17.997274999051488
12,-14.561373904949022
13,20.482589108305042
14,18.124041965189527
15,20.999997641091422
16,17.997274999051488
17,-14.561373904949022
18,20.588533384829226
19,18.122315811319254
20,20.999997641091422
21,17.989800003108872
22,-26.48025355829848
23,21.000001465897466
24,21.00000146589747
25,20.999997641091422
26,1.895728018669134e-12
27,21.000001465897476
28,21.000001465897483
29,20.999997641091422
30,2.2716051257168205e-12
31,20.999829720481785
32,18.0
33,20.999997641091422
34,-0.0004728795618493453
35,20.48258910830505
36,18.124041965189527
37,20.99999764109141
38,17.997274999051488
39,-14.56137390494906
40,20.482589746343404
41,18.124045768032115
42,20.99999764109141
43,17.997274999051488
44,-14.561354344807299
45,20.58853338482923
46,18.122315811319254
47,20.99999764109141
48,17.989800003108872
49,-26.480253558298514
50,21.00000146589747
51,21.000001465897466
52,20.99999764109141
53,1.2420287019816002e-12
54,21.000001465897462
55,21.000001465897466
56,20.99999764109141
57,2.0101254001429498e-12
58,20.99982972048339
59,18.0
60,20.99999764109141
61,-0.00047287956184959804
62,20.482589351837472
63,18.124043349646236
64,20.999997641091404
65,17.997274999051488
66,-14.561366860563949
67,20.48258910830502
68,18.124041965189527
69,20.999997641091404
70,17.997274999051488
71,-14.561373904948884
72,20.5885333848292
73,18.122315811319254
74,20.999997641091404
75,17.989800003108872
76,-26.480253558298234
77,21.000001465897483
78,21.000001465897476
79,20.999997641091404
80,8.007816637522043e-13
81,21.000001465897476
82,21.00000146589748
83,20.999997641091404
84,2.2716051274108864e-12
85,20.999829720481316
86,18.0
87,20.999997641091404
88,-0.00047287956184927104
89,20.482589351837486
90,18.12404334964624
91,20.99999764109139
92,17.997274999051488
93,-14.561366860564029
94,20.482589746343383
95,18.124045768032115
96,20.99999764109139
97,17.997274999051488
98,-14.56135434480717
99,20.58853338482921
100,18.122315811319254
101,20.99999764109139
102,17.989800003108872
103,-26.48025355829831
104,21.000001465897466
105,21.000001465897462
106,20.99999764109139
107,1.0622613903848663e-12
108,21.00000146589748
109,21.000001465897476
110,20.99999764109139
111,7.844391807450187e-13
112,20.99982972048292
113,18.0
114,20.99999764109139
115,-0.00047287956184952453
116,20.999998624633538
117,201182.7774692246
251,55.88410675744808
252,20.999998624633506
253,201182.71246760534
315,55.884088701442124
316,20.999998624633516
317,201182.7526588608
379,55.88409986568013
380,20.999998624633488
381,201182.6876572383
443,55.88408180967326
542,55.9824218684085
545,55.98240394125021
548,55.98241498033711
551,55.9823970531781
446,806146.6962354262
2,1, 6,15, 1, 7, 0.00,60.00,SummerDesignDay
7,18.3845
8,20.548938850853318
9,18.496868494992228
10,20.9999999433007
11,18.386774999051486
12,-12.665555968461486
13,20.548938850853318
14,18.496868494992228
15,20.9999999433007
16,18.386774999051486
17,-12.665555968461486
18,20.641554776919307
19,18.49445259948874
20,20.9999999433007
21,18.37930000310887
22,-23.047160406404398
23,21.000000039703345
24,21.00000003970335
25,20.9999999433007
26,2.2716051262065114e-12
27,21.00000003970334
28,21.00000003970334
29,20.9999999433007
30,1.8140156045861182e-12
31,20.999955070714414
32,18.0
33,20.9999999433007
34,-0.0004728993214919274
35,20.548938850853276
36,18.496868494992224
37,20.999999943300647
38,18.386774999051486
39,-12.665555968461225
40,20.548939750454533
41,18.496873548607407
42,20.999999943300647
43,18.386774999051486
44,-12.665530311538696
45,20.641554776919257
46,18.49445259948874
47,20.999999943300647
48,18.37930000310887
49,-23.047160406403922
50,21.00000003970335
51,21.000000039703345
52,20.999999943300647
53,7.844391802156231e-13
54,21.00000003970335
55,21.000000039703355
56,20.999999943300647
57,1.6179058093601588e-12
58,20.999955070714527
59,18.0
60,20.999999943300647
61,-0.00047289932149194487
62,20.548938997628355
63,18.496869289132633
64,20.999999943300686
65,18.386774999051486
66,-12.665551979520995
67,20.54893885085331
68,18.496868494992224
69,20.999999943300686
70,18.386774999051486
71,-12.665555968461417
72,20.641554776919293
73,18.49445259948874
74,20.999999943300686
75,18.37930000310887
76,-23.04716040640427
77,21.00000003970334
78,21.00000003970334
79,20.999999943300686
80,1.4217960141606693e-12
81,21.000000039703345
82,21.00000003970335
83,20.999999943300686
84,2.222577677502592e-12
85,20.999955070714357
86,18.0
87,20.999999943300686
88,-0.00047289932149191787
89,20.54893899762831
90,18.49686928913263
91,20.999999943300633
92,18.386774999051486
93,-12.665551979520746
94,20.548939750454526
95,18.496873548607404
96,20.999999943300633
97,18.386774999051486
98,-12.665530311538657
99,20.641554776919243
100,18.49445259948873
101,20.999999943300633
102,18.37930000310887
103,-23.047160406403787
104,21.000000039703355
105,21.00000003970335
106,20.999999943300633
107,1.3727685655229243e-12
108,21.00000003970335
109,21.000000039703345
110,20.999999943300633
111,7.84439180347972e-13
112,20.999955070714464
113,18.0
114,20.999999943300633
115,-0.0004728993214919349
116,21.00000004442076
117,175319.7533809181
251,48.69993167313214
252,21.000000044420702
253,175319.66173210373
315,48.69990621512807
316,21.00000004442075
317,175319.73842790409
379,48.69992751951713
380,21.000000044420695
381,175319.6467790848
443,48.69990206151169
542,48.7735605940469
545,48.77353522192191
548,48.773556447262976
551,48.77353107513679
446,702339.0600181269
2,1, 6,15, 1, 8, 0.00,60.00,SummerDesignDay
7,19.3915
8,20.720784976336077
9,19.460893540718597
10,21.000000079581593
11,19.393774999051487
12,-7.767149996636009
13,20.720785028085064
14,19.460893840467534
15,21.000000079581593
16,19.393774999051487
17,-7.767148458662209
18,20.77812316975747
19,19.456683542728314
20,21.000000079581593
21,19.38630000310887
22,-14.168124993302527
23,20.999999984949817
24,20.99999998494982