Program Version,EnergyPlus, Version 24.2.0-94a887817b, YMD=2026.05.15 14:38
1,5,Environment Title[],Latitude[deg],Longitude[deg],Time Zone[],Elevation[m]
2,8,Day of Simulation[],Month[],Day of Month[],DST Indicator[1=yes 0=no],Hour[],StartMinute[],EndMinute[],DayType
3,5,Cumulative Day of Simulation[],Month[],Day of Month[],DST Indicator[1=yes 0=no],DayType  ! When Daily Report Variables Requested
4,2,Cumulative Days of Simulation[],Month[]  ! When Monthly Report Variables Requested
5,1,Cumulative Days of Simulation[] ! When Run Period Report Variables Requested
6,1,Calendar Year of Simulation[] ! When Annual Report Variables Requested
7,1,Environment,Site Outdoor Air Drybulb Temperature [C] !Hourly
8,1,Z1,Zone Air Temperature [C] !Hourly
143,1,Z2,Zone Air Temperature [C] !Hourly
206,1,Z3,Zone Air Temperature [C] !Hourly
269,1,Z4,Zone Air Temperature [C] !Hourly
332,1,Z5,Zone Air Temperature [C] !Hourly
395,1,Z6,Zone Air Temperature [C] !Hourly
458,1,Z7,Zone Air Temperature [C] !Hourly
521,1,Z8,Zone Air Temperature [C] !Hourly
584,1,HOT WATER LOOP,Plant Supply Side Outlet Temperature [C] !Hourly
647,1,Z1 RADIATOR,Baseboard Total Heating Rate [W] !Hourly
648,1,Z1 RADIATOR,Baseboard Hot Water Mass Flow Rate [kg/s] !Hourly
651,1,Z2 RADIATOR,Baseboard Total Heating Rate [W] !Hourly
652,1,Z2 RADIATOR,Baseboard Hot Water Mass Flow Rate [kg/s] !Hourly
655,1,Z3 RADIATOR,Baseboard Total Heating Rate [W] !Hourly
656,1,Z3 RADIATOR,Baseboard Hot Water Mass Flow Rate [kg/s] !Hourly
659,1,Z4 RADIATOR,Baseboard Total Heating Rate [W] !Hourly
660,1,Z4 RADIATOR,Baseboard Hot Water Mass Flow Rate [kg/s] !Hourly
663,1,Z5 RADIATOR,Baseboard Total Heating Rate [W] !Hourly
664,1,Z5 RADIATOR,Baseboard Hot Water Mass Flow Rate [kg/s] !Hourly
667,1,Z6 RADIATOR,Baseboard Total Heating Rate [W] !Hourly
668,1,Z6 RADIATOR,Baseboard Hot Water Mass Flow Rate [kg/s] !Hourly
671,1,Z7 RADIATOR,Baseboard Total Heating Rate [W] !Hourly
672,1,Z7 RADIATOR,Baseboard Hot Water Mass Flow Rate [kg/s] !Hourly
675,1,Z8 RADIATOR,Baseboard Total Heating Rate [W] !Hourly
676,1,Z8 RADIATOR,Baseboard Hot Water Mass Flow Rate [kg/s] !Hourly
677,1,HEAT PUMP,Heat Pump Load Side Heat Transfer Rate [W] !Hourly
691,1,HEAT PUMP,Heat Pump Load Side Inlet Temperature [C] !Hourly
692,1,HEAT PUMP,Heat Pump Load Side Outlet Temperature [C] !Hourly
693,1,HEAT PUMP,Heat Pump Electricity Rate [W] !Hourly
768,1,SUPPLY PUMP,Pump Electricity Rate [W] !Hourly
769,1,SUPPLY PUMP,Pump Fluid Heat Gain Rate [W] !Hourly
770,1,SUPPLY PUMP,Pump Mass Flow Rate [kg/s] !Hourly
798,1,Baseboard Total Heating Rate All Zones,PythonPlugin:OutputVariable [W] !Hourly
End of Data Dictionary
1,WINTER DESIGN DAY IN (MID) UK,  53.35,  -2.28,   0.00,  69.00
2,1, 1,15, 0, 1, 0.00,60.00,WinterDesignDay
7,-3.0
8,20.051409759864548
143,17.99990876430401
206,17.99990876430387
269,20.051409759864548
332,17.999935627536047
395,20.380017006970967
458,20.3800170069703
521,17.999935627536047
584,46.032
647,343.64720750888665
648,0.029496
651,124.92142167854448
652,0.0011130311279296875
655,124.92142167854502
656,0.0011130311279296875
659,343.64720750888665
660,0.029496
663,281.6365673209865
664,0.0026968388671875006
667,549.0669412228553
668,0.029496
671,549.0669412228702
672,0.029496
675,281.6365673209865
676,0.0026968388671875006
677,2596.4610912448316
691,41.25333611098182
692,46.032
693,999.1868543749305
768,1.9661225407698506
769,1.9661225407698506
770,0.12998674
798,2598.5442754625615
2,1, 1,15, 0, 2, 0.00,60.00,WinterDesignDay
7,-3.0
8,20.05141058612843
143,17.999829533834173
206,17.999829533834014
269,20.05141058612843
332,17.999935566579996
395,20.380016983297352
458,20.380016983296695
521,17.999935566579996
584,46.032
647,343.6472228006983
648,0.029496
651,124.92164603874518
652,0.0011130311279296875
655,124.92164603874592
656,0.0011130311279296875
659,343.6472228006983
660,0.029496
663,281.6365671596836
664,0.0026968388671875006
667,549.0669445495175
668,0.029496
671,549.0669445495313
672,0.029496
675,281.6365671596836
676,0.0026968388671875006
677,2596.450277000871
691,41.25335601408658
692,46.032
693,999.1826927680255
768,1.9661225565535314
769,1.9661225565535314
770,0.12998674
798,2598.5447610973033
2,1, 1,15, 0, 3, 0.00,60.00,WinterDesignDay
7,-3.0
8,20.051410737462287
143,17.99995891241717
206,17.999958912416993
269,20.051410737462287
332,17.999935420282338
395,20.380016993576376
458,20.380016993575683
521,17.999935420282338
584,46.032
647,343.6472117936852
648,0.029496
651,124.96530556579609
652,0.001113481201171875
655,124.96530556579684
656,0.001113481201171875
659,343.6472117936852
660,0.029496
663,281.63656774649223
664,0.0026968388671875006
667,549.0669449999225
668,0.029496
671,549.066944999937
672,0.029496
675,281.63656774649223
676,0.0026968388671875006
677,2596.526442383811
691,41.25321583530005
692,46.032
693,999.2120032204906
768,1.9661224453872914
769,1.9661224453872914
770,0.12998674
798,2598.6320602118076
2,1, 1,15, 0, 4, 0.00,60.00,WinterDesignDay
7,-3.0
8,20.051409588413037
143,17.99990858601689
206,17.99990858601671
269,20.051409588413037
332,17.999935444345432
395,20.380016845019107
458,20.380016845018417
521,17.999935444345432
584,46.032
647,343.64720981000767
648,0.029496
651,124.92142248531535
652,0.0011130311279296875
655,124.92142248531616
656,0.0011130311279296875
659,343.64720981000767
660,0.029496
663,281.6365691885149
664,0.0026968388671875006
667,549.066944740231
668,0.029496
671,549.066944740246
672,0.029496
675,281.6365691885149
676,0.0026968388671875006
677,2596.4611082612664
691,41.25333607966388
692,46.032
693,999.1868609233043
768,1.966122540745015
769,1.966122540745015
770,0.12998674
798,2598.5442924481536
2,1, 1,15, 0, 5, 0.00,60.00,WinterDesignDay
7,-3.0
8,20.051410424381363
143,17.999829365809614
206,17.99982936580943
269,20.051410424381363
332,17.999935393759955
395,20.380016830514272
458,20.380016830513636
521,17.999935393759955
584,46.032
647,343.64722497151
648,0.029496
651,124.92164679928099
652,0.0011130311279296875
655,124.92164679928185
656,0.0011130311279296875
659,343.64722497151
660,0.029496
663,281.63656892149106
664,0.0026968388671875006
667,549.0669478677522
668,0.029496
671,549.0669478677656
672,0.029496
675,281.63656892149106
676,0.0026968388671875006
677,2596.450293053182
691,41.25335598454306
692,46.032
693,999.1826989453791
768,1.9661225565301024
769,1.9661225565301024
770,0.12998674
798,2598.544777120083
2,1, 1,15, 0, 6, 0.00,60.00,WinterDesignDay
7,-3.0
8,20.051410584871917
143,17.999958753628
206,17.999958753627812
269,20.051410584871917
332,17.99993525724603
395,20.380016849442924
458,20.380016849442274
521,17.99993525724603
584,46.032
647,343.6472138416261
648,0.029496
651,124.96530628280031
652,0.001113481201171875
655,124.96530628280115
656,0.001113481201171875
659,343.6472138416261
660,0.029496
663,281.6365694085622
664,0.0026968388671875006
667,549.0669481302983
668,0.029496
671,549.0669481303121
672,0.029496
675,281.6365694085622
676,0.0026968388671875006
677,2596.526457526418
691,41.25321580743079
692,46.032
693,999.212009047766
768,1.96612244536519
769,1.96612244536519
770,0.12998674
798,2598.6320753265886
2,1, 1,15, 0, 7, 0.00,60.00,WinterDesignDay
7,-3.0
8,20.051409444463502
143,17.999908436328514
206,17.99990843632833
269,20.051409444463502
332,17.999935290538758
395,20.380016709046014
458,20.38001670904544
521,17.999935290538758
584,46.032
647,343.64721174201304
648,0.029496
651,124.92142316267342
652,0.0011130311279296875
655,124.92142316267427
656,0.0011130311279296875
659,343.64721174201304
660,0.029496
663,281.6365707564903
664,0.0026968388671875006
667,549.0669476933826
668,0.029496
671,549.0669476933958
672,0.029496
675,281.6365707564903
676,0.0026968388671875006
677,2596.461122548142
691,41.25333605336956
692,46.032
693,999.1868664212717
768,1.9661225407241627
769,1.9661225407241627
770,0.12998674
798,2598.544306709133
2,1, 1,15, 0, 8, 0.00,60.00,WinterDesignDay
7,-3.0
8,20.051410288579497
143,17.99982922473757
206,17.99982922473739
269,20.051410288579497
332,17.999935248660783
395,20.380016702239356
458,20.380016702239036
521,17.999935248660783
584,46.032
647,343.6472267941101
648,0.029496
651,124.92164743782068
652,0.0011130311279296875
655,124.92164743782142
656,0.0011130311279296875
659,343.6472267941101
660,0.029496
663,281.63657040070046
664,0.0026968388671875006
667,549.0669506537051
668,0.029496
671,549.0669506537134
672,0.029496
675,281.63657040070046
676,0.0026968388671875006
677,2596.4503065305707
691,41.25335595973856
692,46.032
693,999.1827041318345
768,1.9661225565104319
769,1.9661225565104319
770,0.12998674
798,2598.5447905726814
2,1, 1,15, 0, 9, 0.00,60.00,WinterDesignDay
7,-3.0
8,20.05141045675797
143,17.99995862030989
206,17.999958620309737
269,20.05141045675797
332,17.999935120361805
395,20.380016728430547
458,20.380016728430466
521,17.999935120361805
584,46.032
647,343.6472155610654
648,0.029496
651,124.96530688479118
652,0.001113481201171875
655,124.965306884792
656,0.001113481201171875
659,343.6472155610654
660,0.029496
663,281.6365708040268
664,0.0026968388671875006
667,549.0669507585194
668,0.029496
671,549.0669507585226
672,0.029496
675,281.6365708040268
676,0.0026968388671875006
677,2596.5264702399995
691,41.25321578403205
692,46.032
693,999.2120139402881
768,1.9661224453466346
769,1.9661224453466346
770,0.12998674
798,2598.6320880168096
2,1, 1,15, 0,10, 0.00,60.00,WinterDesignDay
7,-3.0
8,20.05140932360449
143,17.999908310651403
206,17.999908310651293
269,20.05140932360449
332,17.999935161404508
395,20.3800165948854
458,20.380016594885472
521,17.999935161404508
584,46.032
647,343.6472133641116
648,0.029496
651,124.92142373137784
652,0.0011130311279296875
655,124.92142373137833
656,0.0011130311279296875
659,343.6472133641116
660,0.029496
663,281.6365720729461
664,0.0026968388671875006
667,549.0669501727995
668,0.029496
671,549.0669501727986
672,0.029496
675,281.6365720729461
676,0.0026968388671875006
677,2596.4611345432245
691,41.25333603129317
692,46.032
693,999.1868710372964
768,1.9661225407066556
769,1.9661225407066556
770,0.12998674
798,2598.5443186824696
2,1, 1,15, 0,11, 0.00,60.00,WinterDesignDay
7,-3.0
8,20.05141017456148
143,17.99982910629476
206,17.999829106294694
269,20.05141017456148
332,17.999935126838093
395,20.380016594542273
458,20.38001659454236
521,17.999935126838093
584,46.032
647,343.6472283243501
648,0.029496
651,124.92164797393289
652,0.0011130311279296875
655,124.92164797393322
656,0.0011130311279296875
659,343.6472283243501
660,0.029496
663,281.6365716426203
664,0.0026968388671875006
667,549.066952992737
668,0.029496
671,549.0669529927347
672,0.029496
675,281.6365716426203
676,0.0026968388671875006
677,2596.450317845982
691,41.25335593891308
692,46.032
693,999.1827084863039
768,1.9661225564939164
769,1.9661225564939164
770,0.12998674
798,2598.5448018672782
2,1, 1,15, 0,12, 0.00,60.00,WinterDesignDay
7,-3.0
8,20.051410349194967
143,17.99995850837737
206,17.999958508377333
269,20.051410349194967
332,17.99993500543665
395,20.380016626830685
458,20.380016626830688
521,17.99993500543665
584,46.032
647,343.64721700468795
648,0.029496
651,124.96530739021685
652,0.001113481201171875
655,124.96530739021702
656,0.001113481201171875
659,343.64721700468795
660,0.029496
663,281.63657197563043
664,0.0026968388671875006
667,549.0669529651254
668,0.029496
671,549.0669529651246
672,0.029496
675,281.63657197563043
676,0.0026968388671875006
677,2596.5264809141268
691,41.25321576438682
692,46.032
693,999.2120180479744
768,1.966122445331055
769,1.966122445331055
770,0.12998674
798,2598.632098671321
2,1, 1,15, 0,13, 0.00,60.00,WinterDesignDay
7,-3.0
8,20.051409222132875
143,17.999908205134332
206,17.999908205134304
269,20.051409222132875
332,17.999935052985844
395,20.380016499037747
458,20.380016499037527
521,17.999935052985844
584,46.032
647,343.64721472600456
648,0.029496
651,124.9214242088556
652,0.0011130311279296875
655,124.92142420885577
656,0.0011130311279296875
659,343.64721472600456
660,0.029496
663,281.6365731782163
664,0.0026968388671875006
667,549.0669522544811
668,0.029496
671,549.0669522544841
672,0.029496
675,281.6365731782163
676,0.0026968388671875006
677,2596.4611446141253
691,41.253336012758155
692,46.032
693,999.1868749128453
768,1.9661225406919565
769,1.9661225406919565
770,0.12998674
798,2598.544328735118
2,1, 1,15, 0,14, 0.00,60.00,WinterDesignDay
7,-3.0
8,20.05141007883354
143,17.999829006851627
206,17.99982900685159
269,20.05141007883354
332,17.999935024557658
395,20.380016504121045
458,20.38001650412059
521,17.999935024557658
584,46.032
647,343.6472296091184
648,0.029496
651,124.92164842404628
652,0.0011130311279296875
655,124.92164842404642
656,0.0011130311279296875
659,343.6472296091184
660,0.029496
663,281.63657268531597
664,0.0026968388671875006
667,549.0669549565597
668,0.029496
671,549.0669549565685
672,0.029496
675,281.63657268531597
676,0.0026968388671875006
677,2596.4503273462715
691,41.25335592142825
692,46.032
693,999.1827121422664
768,1.9661225564800504
769,1.9661225564800504
770,0.12998674
798,2598.5448113500897
2,1, 1,15, 0,15, 0.00,60.00,WinterDesignDay
7,-3.0
8,20.05141025888654
143,17.99995841440024
206,17.999958414400176
269,20.05141025888654
332,17.99993490894713
395,20.380016541528718
458,20.38001654152817
521,17.99993490894713
584,46.032
647,343.64721821673317
648,0.029496
651,124.96530781456578
652,0.001113481201171875
655,124.9653078145661
656,0.001113481201171875
659,343.64721821673317
660,0.029496
663,281.63657295929204
664,0.0026968388671875006
667,549.0669548177652
668,0.029496
671,549.0669548177766
672,0.029496
675,281.63657295929204
676,0.0026968388671875006
677,2596.5264898759974
691,41.253215747892924
692,46.032
693,999.212021496739
768,1.9661224453179749
769,1.9661224453179749
770,0.12998674
798,2598.6321076167237
2,1, 1,15, 0,16, 0.00,60.00,WinterDesignDay
7,-3.0
8,20.05140913693866
143,17.999908116543548
206,17.99990811654346
269,20.05140913693866
332,17.999934961958996
395,20.38001641856521
458,20.380016418564722
521,17.999934961958996
584,46.032
647,343.6472158694315
648,0.029496
651,124.92142460973987
652,0.0011130311279296875
655,124.92142460974031
656,0.0011130311279296875
659,343.6472158694315
660,0.029496
663,281.6365741061859
664,0.0026968388671875006
667,549.0669540022344
668,0.029496
671,549.0669540022453
672,0.029496
675,281.6365741061859
676,0.0026968388671875006
677,2596.4611530695292
691,41.25333599719639
692,46.032
693,999.186878166708
768,1.9661225406796154
769,1.9661225406796154
770,0.12998674
798,2598.544337175195
2,1, 1,15, 0,17, 0.00,60.00,WinterDesignDay
7,-3.0
8,20.051409998461597
143,17.999828923360454
206,17.999828923360344
269,20.051409998461597
332,17.999934938683957
395,20.38001642820406
458,20.380016428203437
521,17.999934938683957
584,46.032
647,343.647230687793
648,0.029496
651,124.92164880195564
652,0.0011130311279296875
655,124.92164880195607
656,0.0011130311279296875
659,343.647230687793
660,0.029496
663,281.63657356075197
664,0.0026968388671875006
667,549.0669566053684
668,0.029496
671,549.0669566053805
672,0.029496
675,281.63657356075197
676,0.0026968388671875006
677,2596.450335322604
691,41.25335590674819
692,46.032
693,999.1827152117698
768,1.9661225564684088
769,1.9661225564684088
770,0.12998674
798,2598.544819311751
2,1, 1,15, 0,18, 0.00,60.00,WinterDesignDay
7,-3.0
8,20.051410183064647
143,17.999958335498206
206,17.999958335498068
269,20.051410183064647
332,17.99993482793466
395,20.380016469909293
458,20.380016469908384
521,17.99993482793466
584,46.032
647,343.64721923435224
648,0.029496
651,124.96530817084388
652,0.001113481201171875
655,124.96530817084442
656,0.001113481201171875
659,343.64721923435224
660,0.029496
663,281.636573785171
664,0.0026968388671875006
667,549.0669563732362
668,0.029496
671,549.0669563732544
672,0.029496
675,281.636573785171
676,0.0026968388671875006
677,2596.5264974003258
691,41.25321573404476
692,46.032
693,999.2120243922994
768,1.9661224453069925
769,1.9661224453069925
770,0.12998674
798,2598.632115127225
2,1, 1,15, 0,19, 0.00,60.00,WinterDesignDay
7,-3.0
8,20.051409065410382
143,17.999908042163717
206,17.999908042163547
269,20.051409065410382
332,17.999934885532472
395,20.380016351000318
458,20.38001635099935
521,17.999934885532472
584,46.032
647,343.6472168294416
648,0.029496
651,124.92142494631773
652,0.0011130311279296875
655,124.92142494631847
656,0.0011130311279296875
659,343.6472168294416
660,0.029496
663,281.63657488531214
664,0.0026968388671875006
667,549.0669554696509
668,0.029496
671,549.0669554696722
672,0.029496
675,281.63657488531214
676,0.0026968388671875006
677,2596.4611601686656
691,41.253335984130764
692,46.032
693,999.1868808986434
768,1.9661225406692542
769,1.9661225406692542
770,0.12998674
798,2598.544344261467
2,1, 1,15, 0,20, 0.00,60.00,WinterDesignDay
7,-3.0
8,20.051409930981837
143,17.999828853262038
206,17.99982885326183
269,20.051409930981837
332,17.999934866584045
395,20.380016364464087
458,20.380016364463458
521,17.999934866584045
584,46.032
647,343.6472315934405
648,0.029496
651,124.92164911924465
652,0.0011130311279296875
655,124.9216491192455
656,0.0011130311279296875
659,343.6472315934405
660,0.029496
663,281.63657429577233
664,0.0026968388671875006
667,549.0669579897102
668,0.029496
671,549.0669579897261
672,0.029496
675,281.63657429577233
676,0.0026968388671875006
677,2596.4503420195274
691,41.25335589442282
692,46.032
693,999.182717788923
768,1.9661225564586342
769,1.9661225564586342
770,0.12998674
798,2598.5448259963523
2,1, 1,15, 0,21, 0.00,60.00,WinterDesignDay
7,-3.0
8,20.051410119404935
143,17.999958269252648
206,17.99995826925244
269,20.051410119404935
332,17.999934759916787
395,20.380016409777724
458,20.380016409777433
521,17.999934759916787
584,46.032
647,343.6472200887395
648,0.029496
651,124.96530846997221
652,0.001113481201171875
655,124.96530846997312
656,0.001113481201171875
659,343.6472200887395
660,0.029496
663,281.6365744785785
664,0.0026968388671875006
667,549.066957679208
668,0.029496
671,549.0669576792158
672,0.029496
675,281.6365744785785
676,0.0026968388671875006
677,2596.5265037177114
691,41.253215722417906
692,46.032
693,999.2120268233966
768,1.9661224452977721
769,1.9661224452977721
770,0.12998674
798,2598.632121433005
2,1, 1,15, 0,22, 0.00,60.00,WinterDesignDay
7,-3.0
8,20.051409005355588
143,17.999907979714866
206,17.999907979714695
269,20.051409005355588
332,17.999934821365564
395,20.380016294272984
458,20.380016294272973
521,17.999934821365564
584,46.032
647,343.6472176354614
648,0.029496
651,124.9214252289063
652,0.0011130311279296875
655,124.9214252289071
656,0.0011130311279296875
659,343.6472176354614
660,0.029496
663,281.63657553945984
664,0.0026968388671875006
667,549.0669567016909
668,0.029496
671,549.0669567016928
672,0.029496
675,281.63657553945984
676,0.0026968388671875006
677,2596.461166129045
691,41.25333597316097
692,46.032
693,999.1868831923549
768,1.9661225406605547
769,1.9661225406605547
770,0.12998674
798,2598.5443502110397
2,1, 1,15, 0,23, 0.00,60.00,WinterDesignDay
7,-3.0
8,20.051409874326286
143,17.999828794407797
206,17.999828794407676
269,20.051409874326286
332,17.999934806050106
395,20.380016310948445
458,20.380016310948534
521,17.999934806050106
584,46.032
647,343.64723235381643
648,0.029496
651,124.92164938563874
652,0.0011130311279296875
655,124.92164938563931
656,0.0011130311279296875
659,343.64723235381643
660,0.029496
663,281.63657491288416
664,0.0026968388671875006
667,549.0669591519966
668,0.029496
671,549.0669591519948
672,0.029496
675,281.63657491288416
676,0.0026968388671875006
677,2596.4503476421896
691,41.25335588407457
692,46.032
693,999.182719952672
768,1.966122556450428
769,1.966122556450428
770,0.12998674
798,2598.5448316086704
2,1, 1,15, 0,24, 0.00,60.00,WinterDesignDay
7,-3.0
8,20.051410065956812
143,17.999958213633274
206,17.9999582136332
269,20.051410065956812
332,17.999934702810023
395,20.380016359292114
458,20.38001635929209
521,17.999934702810023
584,46.032
647,343.64722080607623
648,0.029496
651,124.96530872111849
652,0.001113481201171875
655,124.96530872111892
656,0.001113481201171875
659,343.64722080607623
660,0.029496
663,281.63657506075253
664,0.0026968388671875006
667,549.0669587756867
668,0.029496
671,549.0669587756863
672,0.029496
675,281.63657506075253
676,0.0026968388671875006
677,2596.52650902172
691,41.25321571265613
692,46.032
693,999.212028864519
768,1.9661224452900306
769,1.9661224452900306
770,0.12998674
798,2598.632126727268
End of Data
 Number of Records Written=         816
