Program Version,EnergyPlus, Version 24.2.0-94a887817b, YMD=2026.04.28 12:48
1,5,Environment Title[],Latitude[deg],Longitude[deg],Time Zone[],Elevation[m]
2,8,Day of Simulation[],Month[],Day of Month[],DST Indicator[1=yes 0=no],Hour[],StartMinute[],EndMinute[],DayType
3,5,Cumulative Day of Simulation[],Month[],Day of Month[],DST Indicator[1=yes 0=no],DayType  ! When Daily Report Variables Requested
4,2,Cumulative Days of Simulation[],Month[]  ! When Monthly Report Variables Requested
5,1,Cumulative Days of Simulation[] ! When Run Period Report Variables Requested
6,1,Calendar Year of Simulation[] ! When Annual Report Variables Requested
7,1,Environment,Site Outdoor Air Drybulb Temperature [C] !Hourly
8,1,Z1,Zone Air Temperature [C] !Hourly
143,1,Z2,Zone Air Temperature [C] !Hourly
206,1,Z3,Zone Air Temperature [C] !Hourly
269,1,Z4,Zone Air Temperature [C] !Hourly
332,1,Z5,Zone Air Temperature [C] !Hourly
395,1,Z6,Zone Air Temperature [C] !Hourly
458,1,Z7,Zone Air Temperature [C] !Hourly
521,1,Z8,Zone Air Temperature [C] !Hourly
584,1,HOT WATER LOOP,Plant Supply Side Outlet Temperature [C] !Hourly
647,1,Z1 RADIATOR,Baseboard Total Heating Rate [W] !Hourly
648,1,Z1 RADIATOR,Baseboard Hot Water Mass Flow Rate [kg/s] !Hourly
651,1,Z2 RADIATOR,Baseboard Total Heating Rate [W] !Hourly
652,1,Z2 RADIATOR,Baseboard Hot Water Mass Flow Rate [kg/s] !Hourly
655,1,Z3 RADIATOR,Baseboard Total Heating Rate [W] !Hourly
656,1,Z3 RADIATOR,Baseboard Hot Water Mass Flow Rate [kg/s] !Hourly
659,1,Z4 RADIATOR,Baseboard Total Heating Rate [W] !Hourly
660,1,Z4 RADIATOR,Baseboard Hot Water Mass Flow Rate [kg/s] !Hourly
663,1,Z5 RADIATOR,Baseboard Total Heating Rate [W] !Hourly
664,1,Z5 RADIATOR,Baseboard Hot Water Mass Flow Rate [kg/s] !Hourly
667,1,Z6 RADIATOR,Baseboard Total Heating Rate [W] !Hourly
668,1,Z6 RADIATOR,Baseboard Hot Water Mass Flow Rate [kg/s] !Hourly
671,1,Z7 RADIATOR,Baseboard Total Heating Rate [W] !Hourly
672,1,Z7 RADIATOR,Baseboard Hot Water Mass Flow Rate [kg/s] !Hourly
675,1,Z8 RADIATOR,Baseboard Total Heating Rate [W] !Hourly
676,1,Z8 RADIATOR,Baseboard Hot Water Mass Flow Rate [kg/s] !Hourly
677,1,HEAT PUMP,Heat Pump Load Side Heat Transfer Rate [W] !Hourly
691,1,HEAT PUMP,Heat Pump Load Side Inlet Temperature [C] !Hourly
692,1,HEAT PUMP,Heat Pump Load Side Outlet Temperature [C] !Hourly
693,1,HEAT PUMP,Heat Pump Electricity Rate [W] !Hourly
768,1,SUPPLY PUMP,Pump Electricity Rate [W] !Hourly
769,1,SUPPLY PUMP,Pump Fluid Heat Gain Rate [W] !Hourly
770,1,SUPPLY PUMP,Pump Mass Flow Rate [kg/s] !Hourly
798,1,Baseboard Total Heating Rate All Zones,PythonPlugin:OutputVariable [W] !Hourly
End of Data Dictionary
1,WINTER DESIGN DAY IN (MID) UK,  53.35,  -2.28,   0.00,  69.00
2,1, 1,15, 0, 1, 0.00,60.00,WinterDesignDay
7,-3.0
8,20.999918365295677
143,17.999982092268745
206,17.99998209226885
269,20.999918365295677
332,18.000284739055395
395,20.48458802348365
458,20.48458802348277
521,18.000284739055395
584,46.032
647,413.15307984310533
648,0.007222775390625001
651,102.1032185065268
652,0.0008720169067382814
655,102.1032185065263
656,0.0008720169067382814
659,413.15307984310533
660,0.007222775390625001
663,248.38197371867957
664,0.002282771484375
667,546.8286615746204
668,0.029496
671,546.8286615746383
672,0.029496
675,248.38197371867957
676,0.002282771484375
677,2618.8383857825147
691,41.21215175828664
692,46.032
693,1007.7982287621388
768,1.9660898807929217
769,1.9660898807929217
770,0.12998674
798,1030.512596699264
2,1, 1,15, 0, 2, 0.00,60.00,WinterDesignDay
7,-3.0
8,20.99992300686342
143,18.000033108645887
206,18.00003310864588
269,20.99992300686342
332,18.000286273299935
395,20.48458927895382
458,20.48458927895305
521,18.000286273299935
584,46.032
647,413.1530255357201
648,0.007222775390625001
651,102.12951577046319
652,0.0008722419433593752
655,102.12951577046312
656,0.0008722419433593752
659,413.1530255357201
660,0.007222775390625001
663,248.38196145685845
664,0.002282771484375
667,546.8286394630295
668,0.029496
671,546.8286394630472
672,0.029496
675,248.38196145685845
676,0.002282771484375
677,2618.877268236679
691,41.212080196967946
692,46.032
693,1007.8131917581942
768,1.9660898240444649
769,1.9660898240444649
770,0.12998674
798,1030.5650826123665
2,1, 1,15, 0, 3, 0.00,60.00,WinterDesignDay
7,-3.0
8,20.999923464019485
143,17.999947812599505
206,17.99994781259942
269,20.999923464019485
332,18.00028836102709
395,20.484590597147093
458,20.48459059714665
521,18.00028836102709
584,46.032
647,413.15297078147887
648,0.007222775390625001
651,102.0767579699982
652,0.0008717918701171875
655,102.0767579699985
656,0.0008717918701171875
659,413.15297078147887
660,0.007222775390625001
663,248.38194476507036
664,0.002282771484375
667,546.8286059658791
668,0.029496
671,546.8286059658902
672,0.029496
675,248.38194476507036
676,0.002282771484375
677,2618.7986342346885
691,41.21222491913113
692,46.032
693,1007.7829313158713
768,1.9660899388099338
769,1.9660899388099338
770,0.12998674
798,1030.4594575029544
2,1, 1,15, 0, 4, 0.00,60.00,WinterDesignDay
7,-3.0
8,20.999604941294184
143,17.99994458268287
206,17.99994458268276
269,20.999604941294184
332,18.000282525095102
395,20.48459164710074
458,20.484591647100636
521,18.000282525095102
584,46.032
647,413.1631163296488
648,0.007222775390625
651,102.10321952907991
652,0.0008720169067382814
655,102.1032195290802
656,0.0008720169067382814
659,413.1631163296488
660,0.007222775390625
663,248.3819283328105
664,0.002282771484375
667,546.8285850133822
668,0.029496
671,546.8285850133861
672,0.029496
675,248.3819283328105
676,0.002282771484375
677,2618.8178665878736
691,41.21218952289432
692,46.032
693,1007.7903324337027
768,1.966089910740782
769,1.966089910740782
770,0.12998674
798,1030.5326717174578
2,1, 1,15, 0, 5, 0.00,60.00,WinterDesignDay
7,-3.0
8,20.999827328010305
143,17.99988713469338
206,17.99988713469329
269,20.999827328010305
332,18.000266200788136
395,20.4845893034409
458,20.484589303441034
521,18.000266200788136
584,46.032
647,413.15479409825826
648,0.007222775390625
651,102.07682172995632
652,0.0008717918701171877
655,102.07682172995669
656,0.0008717918701171877
659,413.15479409825826
660,0.007222775390625
663,248.38213524080567
664,0.002282771484375
667,546.8286071360787
668,0.029496
671,546.8286071360772
672,0.029496
675,248.38213524080567
676,0.002282771484375
677,2618.7959349058874
691,41.21222988711818
692,46.032
693,1007.7818925428032
768,1.9660899427496994
769,1.9660899427496994
770,0.12998674
798,1030.4632316564296
2,1, 1,15, 0, 6, 0.00,60.00,WinterDesignDay
7,-3.0
8,20.999867959817237
143,17.999984693364013
206,17.999984693363952
269,20.999867959817237
332,18.0002665624627
395,20.484586021856938
458,20.484586021857098
521,18.0002665624627
584,46.032
647,413.1540211985487
648,0.007222775390625
651,102.12981339605749
652,0.0008722419433593752
655,102.12981339605766
656,0.0008722419433593752
659,413.1540211985487
660,0.007222775390625
663,248.38213608829543
664,0.002282771484375
667,546.8286853467514
668,0.029496
671,546.8286853467474
672,0.029496
675,248.38213608829543
676,0.002282771484375
677,2618.8803193568683
691,41.21207458152548
692,46.032
693,1007.8143659098866
768,1.9660898195915615
769,1.9660898195915615
770,0.12998674
798,1030.5676691892127
2,1, 1,15, 0, 7, 0.00,60.00,WinterDesignDay
7,-3.0
8,20.99988390640725
143,17.99990971173572
206,17.999909711735693
269,20.99988390640725
332,18.000269127129865
395,20.48458357723578
458,20.48458357723567
521,18.000269127129865
584,46.032
647,413.15368433454967
648,0.007222775390625
651,102.0768994858321
652,0.0008717918701171875
655,102.07689948583226
656,0.0008717918701171875
659,413.15368433454967
660,0.007222775390625
663,248.38211627987357
664,0.002282771484375
667,546.8287394807835
668,0.029496
671,546.8287394807837
672,0.029496
675,248.38211627987357
676,0.002282771484375
677,2618.800963298724
691,41.212220632598886
692,46.032
693,1007.783827601271
768,1.9660899354106982
769,1.9660899354106982
770,0.12998674
798,1030.4611676407637
2,1, 1,15, 0, 8, 0.00,60.00,WinterDesignDay
7,-3.0
8,20.99990066304319
143,18.000101869685267
206,18.000101869685235
269,20.99990066304319
332,18.000271550864973
395,20.484583195673114
458,20.48458319567257
521,18.000271550864973
584,46.032
647,413.15346384068135
648,0.007222775390625
651,102.12910947816013
652,0.0008722419433593752
655,102.12910947816034
656,0.0008722419433593752
659,413.15346384068135
660,0.007222775390625
663,248.38209341912426
664,0.002282771484375
667,546.8287678530423
668,0.029496
671,546.8287678530513
672,0.029496
675,248.38209341912426
676,0.002282771484375
677,2618.87783358861
691,41.21207915646444
692,46.032
693,1007.8134093205601
768,1.9660898232195154
769,1.9660898232195154
770,0.12998674
798,1030.5651466376833
2,1, 1,15, 0, 9, 0.00,60.00,WinterDesignDay
7,-3.0
8,20.99991130516008
143,17.999961927614834
206,17.999961927614763
269,20.99991130516008
332,18.000275837183906
395,20.484584792496072
458,20.484584792495127
521,18.000275837183906
584,46.032
647,413.15320311486045
648,0.007222775390625
651,102.07669171881884
652,0.0008717918701171875
655,102.07669171881899
656,0.0008717918701171875
659,413.15320311486045
660,0.007222775390625
663,248.3820614732008
664,0.002282771484375
667,546.8287318630726
668,0.029496
671,546.828731863091
672,0.029496
675,248.3820614732008
676,0.002282771484375
677,2618.799457440557
691,41.21222340405965
692,46.032
693,1007.7832481072476
768,1.966089937608483
769,1.966089937608483
770,0.12998674
798,1030.4597896673586
2,1, 1,15, 0,10, 0.00,60.00,WinterDesignDay
7,-3.0
8,20.999916473372288
143,17.99984367852369
206,17.99984367852355
269,20.999916473372288
332,18.000279719841696
395,20.48458625724701
458,20.484586257245866
521,18.000279719841696
584,46.032
647,413.1531334867924
648,0.007222775390625
651,102.07700389150554
652,0.0008717918701171877
655,102.07700389150598
656,0.0008717918701171877
659,413.1531334867924
660,0.007222775390625
663,248.38202371316152
664,0.002282771484375
667,546.8287026389497
668,0.029496
671,546.8287026389736
672,0.029496
675,248.38202371316152
676,0.002282771484375
677,2618.7861755664526
691,41.21224784872102
692,46.032
693,1007.778136891042
768,1.9660899569933667
769,1.9660899569933667
770,0.12998674
798,1030.4602747565964
2,1, 1,15, 0,11, 0.00,60.00,WinterDesignDay
7,-3.0
8,20.999917907779746
143,17.99999257510781
206,17.999992575107612
269,20.999917907779746
332,18.000282434269344
395,20.48458737739947
458,20.48458737739832
521,18.000282434269344
584,46.032
647,413.15309134706786
648,0.007222775390625
651,102.12978517423153
652,0.0008722419433593752
655,102.12978517423221
656,0.0008722419433593752
659,413.15309134706786
660,0.007222775390625
663,248.38199634104342
664,0.002282771484375
667,546.8286774498611
668,0.029496
671,546.8286774498858
672,0.029496
675,248.38199634104342
676,0.002282771484375
677,2618.878087078507
691,41.21207868992827
692,46.032
693,1007.8135068701724
768,1.9660898228495491
769,1.9660898228495491
770,0.12998674
798,1030.5657530425992
2,1, 1,15, 0,12, 0.00,60.00,WinterDesignDay
7,-3.0
8,20.999917224849092
143,17.999924674828243
206,17.999924674827994
269,20.999917224849092
332,18.000284484423418
395,20.484587986216695
458,20.484587986215686
521,18.000284484423418
584,46.032
647,413.15307691123985
648,0.007222775390625
651,102.07684897498494
652,0.0008717918701171875
655,102.07684897498584
656,0.0008717918701171875
659,413.15307691123985
660,0.007222775390625
663,248.38197832476015
664,0.002282771484375
667,546.8286586764948
668,0.029496
671,546.8286586765171
672,0.029496
675,248.38197832476015
676,0.002282771484375
677,2618.7991994588565
691,41.21222387886277
692,46.032
693,1007.7831488290703
768,1.9660899379850045
769,1.9660899379850045
770,0.12998674
798,1030.4598517724505
2,1, 1,15, 0,13, 0.00,60.00,WinterDesignDay
7,-3.0
8,20.99992023875661
143,18.000016363746646
206,18.000016363746372
269,20.99992023875661
332,18.00028585239701
395,20.484588822017134
458,20.484588822016164
521,18.00028585239701
584,46.032
647,413.1530605189788
648,0.007222775390625
651,102.10297359095391
652,0.0008720169067382814
655,102.10297359095492
656,0.0008720169067382814
659,413.1530605189788
660,0.007222775390625
663,248.38196424453926
664,0.002282771484375
667,546.828645780689
668,0.029496
671,546.8286457807098
672,0.029496
675,248.38196424453926
676,0.002282771484375
677,2618.837814773084
691,41.2121528092025
692,46.032
693,1007.7980090226176
768,1.966089881626304
769,1.966089881626304
770,0.12998674
798,1030.5120682198663
2,1, 1,15, 0,14, 0.00,60.00,WinterDesignDay
7,-3.0
8,20.99954206748826
143,17.999856204421427
206,17.999856204421146
269,20.99954206748826
332,18.000287692540823
395,20.484590315327683
458,20.48459031532659
521,18.000287692540823
584,46.032
647,413.0258786781925
648,0.0072155742187500005
651,102.0769593162957
652,0.0008717918701171877
655,102.07695931629671
656,0.0008717918701171877
659,413.0258786781925
660,0.0072155742187500005
663,248.38195015202763
664,0.002282771484375
667,546.828616811927
668,0.029496
671,546.8286168119497
672,0.029496
675,248.38195015202763
676,0.002282771484375
677,2618.5638393311756
691,41.212657048050964
692,46.032
693,1007.6925760311896
768,1.9660902814906351
769,1.9660902814906351
770,0.12998674
798,1030.2056759889774
2,1, 1,15, 0,15, 0.00,60.00,WinterDesignDay
7,-3.0
8,20.999813765061027
143,17.999972858529915
206,17.999972858529613
269,20.999813765061027
332,18.000265904723552
395,20.484590861379072
458,20.484590861377765
521,18.000265904723552
584,46.032
647,413.1553076274189
648,0.007222775390625001
651,102.10321597898556
652,0.0008720169067382814
655,102.10321597898663
656,0.0008720169067382814
659,413.1553076274189
660,0.007222775390625001
663,248.38209802160728
664,0.002282771484375
667,546.8285884929164
668,0.029496
671,546.8285884929435
672,0.029496
675,248.38209802160728
676,0.002282771484375
677,2618.8436511908735
691,41.212142067551476
692,46.032
693,1007.8002550304441
768,1.9660898731081096
769,1.9660898731081096
770,0.12998674
798,1030.5170472128098
2,1, 1,15, 0,16, 0.00,60.00,WinterDesignDay
7,-3.0
8,20.999854555036734
143,18.00000985772588
206,18.00000985772556
269,20.999854555036734
332,18.000264993644166
395,20.484587055083335
458,20.484587055081874
521,18.000264993644166
584,46.032
647,413.1543161606179
648,0.007222775390625001
651,102.10298391013623
652,0.0008720169067382814
655,102.10298391013738
656,0.0008720169067382814
659,413.1543161606179
660,0.007222775390625001
663,248.3821460817381
664,0.002282771484375
667,546.8286621797627
668,0.029496
671,546.8286621797929
672,0.029496
675,248.3821460817381
676,0.002282771484375
677,2618.840783097005
691,41.21214734614265
692,46.032
693,1007.7991513121175
768,1.9660898772940651
769,1.9660898772940651
770,0.12998674
798,1030.5146001415094
2,1, 1,15, 0,17, 0.00,60.00,WinterDesignDay
7,-3.0
8,20.99988399753286
143,18.000036186118308
206,18.000036186117953
269,20.99988399753286
332,18.00026768296724
395,20.484585340054313
458,20.484585340052835
521,18.00026768296724
584,46.032
647,413.15374177563496
648,0.007222775390625001
651,102.12949616622018
652,0.0008722419433593752
655,102.12949616622143
656,0.0008722419433593752
659,413.15374177563496
660,0.007222775390625001
663,248.38213043781423
664,0.002282771484375
667,546.8287099697365
668,0.029496
671,546.8287099697685
672,0.029496
675,248.38213043781423
676,0.002282771484375
677,2618.879159054737
691,41.212076717006696
692,46.032
693,1007.8139193949589
768,1.966089821284835
769,1.966089821284835
770,0.12998674
798,1030.5664758837115
2,1, 1,15, 0,18, 0.00,60.00,WinterDesignDay
7,-3.0
8,20.999897008396267
143,17.99994118907958
206,17.99994118907919
269,20.999897008396267
332,18.000271790217916
395,20.4845847895973
458,20.484584789596123
521,18.000271790217916
584,46.032
647,413.1534451937956
648,0.007222775390625001
651,102.07677582070639
652,0.0008717918701171875
655,102.07677582070788
656,0.0008717918701171875
659,413.1534451937956
660,0.007222775390625001
663,248.38209615217602
664,0.002282771484375
667,546.8287222179862
668,0.029496
671,546.8287222180138
672,0.029496
675,248.38209615217602
676,0.002282771484375
677,2618.800163930025
691,41.21222210379918
692,46.032
693,1007.7835199830678
768,1.9660899365773592
769,1.9660899365773592
770,0.12998674
798,1030.4604420290057
2,1, 1,15, 0,19, 0.00,60.00,WinterDesignDay
7,-3.0
8,20.9999051497426
143,17.99983013221048
206,17.999830132210104
269,20.9999051497426
332,18.00027527484726
395,20.484584800975647
458,20.48458480097498
521,18.00027527484726
584,46.032
647,413.1533321002023
648,0.007222775390625001
651,102.07705663962955
652,0.0008717918701171877
655,102.07705663963098
656,0.0008717918701171877
659,413.1533321002023
660,0.007222775390625001
663,248.3820623940879
664,0.002282771484375
667,546.8287273006478
668,0.029496
671,546.8287273006647
672,0.029496
675,248.3820623940879
676,0.002282771484375
677,2618.786807342413
691,41.212246685967244
692,46.032
693,1007.7783800151296
768,1.9660899560714817
769,1.9660899560714817
770,0.12998674
798,1030.460777479665
2,1, 1,15, 0,20, 0.00,60.00,WinterDesignDay
7,-3.0
8,20.999909364104923
143,17.9999788513857
206,17.99997885138537
269,20.999909364104923
332,18.000277844961637
395,20.484585021544703
458,20.48458502154442
521,18.000277844961637
584,46.032
647,413.1532389966141
648,0.007222775390625001
651,102.1032287718343
652,0.0008720169067382814
655,102.1032287718355
656,0.0008720169067382814
659,413.1532389966141
660,0.007222775390625001
663,248.38203691891067
664,0.002282771484375
667,546.8287239445747
668,0.029496
671,546.8287239445826
672,0.029496
675,248.38203691891067
676,0.002282771484375
677,2618.8389784949586
691,41.21215066742741
692,46.032
693,1007.798456853553
768,1.9660898799278637
769,1.9660898799278637
770,0.12998674
798,1030.512935536898
2,1, 1,15, 0,21, 0.00,60.00,WinterDesignDay
7,-3.0
8,20.999915972186205
143,18.00002892896795
206,18.000028928967694
269,20.999915972186205
332,18.000280211191168
395,20.48458606244006
458,20.484586062440076
521,18.000280211191168
584,46.032
647,413.1531479574035
648,0.007222775390625001
651,102.12953071624419
652,0.0008722419433593752
655,102.12953071624509
656,0.0008722419433593752
659,413.1531479574035
660,0.007222775390625001
663,248.38201686042643
664,0.002282771484375
667,546.8287075385368
668,0.029496
671,546.8287075385377
672,0.029496
675,248.38201686042643
676,0.002282771484375
677,2618.877791913133
691,41.212079233166186
692,46.032
693,1007.813393282735
768,1.9660898232801642
769,1.9660898232801642
770,0.12998674
798,1030.5653573472962
2,1, 1,15, 0,22, 0.00,60.00,WinterDesignDay
7,-3.0
8,20.99991764901104
143,17.999943304948165
206,17.999943304948
269,20.99991764901104
332,18.00028295861358
395,20.484587319157654
458,20.484587319157818
521,18.00028295861358
584,46.032
647,413.1530708221873
648,0.007222775390625001
651,102.07677422802591
652,0.0008717918701171875
655,102.07677422802655
656,0.0008717918701171875
659,413.1530708221873
660,0.007222775390625001
663,248.38199397336584
664,0.002282771484375
667,546.8286760242293
668,0.029496
671,546.8286760242264
672,0.029496
675,248.38199397336584
676,0.002282771484375
677,2618.7991068625042
691,41.21222404928198
692,46.032
693,1007.7831131955467
768,1.9660899381201382
769,1.9660899381201382
770,0.12998674
798,1030.459690100427
2,1, 1,15, 0,23, 0.00,60.00,WinterDesignDay
7,-3.0
8,20.999919730555135
143,17.999835872220714
206,17.99983587222062
269,20.999919730555135
332,18.00028508581744
395,20.484588398561975
458,20.484588398562
521,18.00028508581744
584,46.032
647,413.15307275945713
648,0.007222775390625001
651,102.07703825926806
652,0.0008717918701171877
655,102.0770382592685
656,0.0008717918701171877
659,413.15307275945713
660,0.007222775390625001
663,248.38197260722748
664,0.002282771484375
667,546.8286548362757
668,0.029496
671,546.8286548362744
672,0.029496
675,248.38197260722748
676,0.002282771484375
677,2618.7859228128386
691,41.21224831390211
692,46.032
693,1007.7780396247708
768,1.9660899573624435
769,1.9660899573624435
770,0.12998674
798,1030.4602220374509
2,1, 1,15, 0,24, 0.00,60.00,WinterDesignDay
7,-3.0
8,20.999920486128136
143,17.999985764936262
206,17.999985764936202
269,20.999920486128136
332,18.000286517827533
395,20.484589197138828
458,20.484589197138686
521,18.000286517827533
584,46.032
647,413.1530444113414
648,0.007222775390625001
651,102.10320415898957
652,0.0008720169067382814
655,102.10320415898983
656,0.0008720169067382814
659,413.1530444113414
660,0.007222775390625001
663,248.38195774366295
664,0.002282771484375
667,546.82863690792
668,0.029496
671,546.8286369079228
672,0.029496
675,248.38195774366295
676,0.002282771484375
677,2618.8382046027814
691,41.21215209173937
692,46.032
693,1007.7981590393888
768,1.9660898810573513
769,1.9660898810573513
770,0.12998674
798,1030.5124971406624
End of Data
 Number of Records Written=         816
