Program Version,EnergyPlus, Version 24.2.0-94a887817b, YMD=2026.04.20 12:10
1,5,Environment Title[],Latitude[deg],Longitude[deg],Time Zone[],Elevation[m]
2,8,Day of Simulation[],Month[],Day of Month[],DST Indicator[1=yes 0=no],Hour[],StartMinute[],EndMinute[],DayType
3,5,Cumulative Day of Simulation[],Month[],Day of Month[],DST Indicator[1=yes 0=no],DayType  ! When Daily Report Variables Requested
4,2,Cumulative Days of Simulation[],Month[]  ! When Monthly Report Variables Requested
5,1,Cumulative Days of Simulation[] ! When Run Period Report Variables Requested
6,1,Calendar Year of Simulation[] ! When Annual Report Variables Requested
7,1,Environment,Site Outdoor Air Drybulb Temperature [C] !Hourly
8,1,Z1,Zone Air Temperature [C] !Hourly
143,1,Z2,Zone Air Temperature [C] !Hourly
206,1,Z3,Zone Air Temperature [C] !Hourly
269,1,Z4,Zone Air Temperature [C] !Hourly
332,1,Z5,Zone Air Temperature [C] !Hourly
395,1,Z6,Zone Air Temperature [C] !Hourly
458,1,Z7,Zone Air Temperature [C] !Hourly
521,1,Z8,Zone Air Temperature [C] !Hourly
584,1,HOT WATER LOOP,Plant Supply Side Outlet Temperature [C] !Hourly
647,1,Z1 RADIATOR,Baseboard Total Heating Rate [W] !Hourly
648,1,Z1 RADIATOR,Baseboard Hot Water Mass Flow Rate [kg/s] !Hourly
651,1,Z2 RADIATOR,Baseboard Total Heating Rate [W] !Hourly
652,1,Z2 RADIATOR,Baseboard Hot Water Mass Flow Rate [kg/s] !Hourly
655,1,Z3 RADIATOR,Baseboard Total Heating Rate [W] !Hourly
656,1,Z3 RADIATOR,Baseboard Hot Water Mass Flow Rate [kg/s] !Hourly
659,1,Z4 RADIATOR,Baseboard Total Heating Rate [W] !Hourly
660,1,Z4 RADIATOR,Baseboard Hot Water Mass Flow Rate [kg/s] !Hourly
663,1,Z5 RADIATOR,Baseboard Total Heating Rate [W] !Hourly
664,1,Z5 RADIATOR,Baseboard Hot Water Mass Flow Rate [kg/s] !Hourly
667,1,Z6 RADIATOR,Baseboard Total Heating Rate [W] !Hourly
668,1,Z6 RADIATOR,Baseboard Hot Water Mass Flow Rate [kg/s] !Hourly
671,1,Z7 RADIATOR,Baseboard Total Heating Rate [W] !Hourly
672,1,Z7 RADIATOR,Baseboard Hot Water Mass Flow Rate [kg/s] !Hourly
675,1,Z8 RADIATOR,Baseboard Total Heating Rate [W] !Hourly
676,1,Z8 RADIATOR,Baseboard Hot Water Mass Flow Rate [kg/s] !Hourly
677,1,HEAT PUMP,Heat Pump Load Side Heat Transfer Rate [W] !Hourly
691,1,HEAT PUMP,Heat Pump Load Side Inlet Temperature [C] !Hourly
692,1,HEAT PUMP,Heat Pump Load Side Outlet Temperature [C] !Hourly
693,1,HEAT PUMP,Heat Pump Electricity Rate [W] !Hourly
768,1,SUPPLY PUMP,Pump Electricity Rate [W] !Hourly
769,1,SUPPLY PUMP,Pump Fluid Heat Gain Rate [W] !Hourly
770,1,SUPPLY PUMP,Pump Mass Flow Rate [kg/s] !Hourly
798,1,Baseboard Total Heating Rate All Zones,PythonPlugin:OutputVariable [W] !Hourly
End of Data Dictionary
1,WINTER DESIGN DAY IN (MID) UK,  53.35,  -2.28,   0.00,  69.00
2,1, 1,15, 0, 1, 0.00,60.00,WinterDesignDay
7,-3.0
8,20.099516836577557
143,18.00039408094976
206,18.00039408094976
269,20.099516836577557
332,18.000002332768663
395,21.00130340387989
458,21.00130340387989
521,18.000002332768663
584,46.032
647,555.071105108942
648,0.029496
651,374.3923916419918
652,0.0042882978515625
655,374.3923916419918
656,0.0042882978515625
659,555.071105108942
660,0.029496
663,91.86712560016208
664,0.0007842526245117187
667,272.25944975418975
668,0.0030244921875
671,272.25944975418975
672,0.0030244921875
675,91.86712560016208
676,0.0007842526245117187
677,2585.084773113167
691,41.274273686680175
692,46.032
693,994.8089464730267
768,1.9661391450827979
769,1.9661391450827979
770,0.12998674
798,1858.9269935018674
2,1, 1,15, 0, 2, 0.00,60.00,WinterDesignDay
7,-3.0
8,20.099512897537664
143,18.000680601294967
206,18.000680601294967
269,20.099512897537664
332,18.000016049534175
395,21.000376533700848
458,21.000376533700848
521,18.000016049534175
584,46.032
647,555.0709363187561
648,0.029496
651,374.38932980325717
652,0.0042882978515625
655,374.38932980325717
656,0.0042882978515625
659,555.0709363187561
660,0.029496
663,91.8670990285119
664,0.0007842526245117187
667,272.15664344082995
668,0.00302269189453125
671,272.15664344082995
672,0.00302269189453125
675,91.8670990285119
676,0.0007842526245117187
677,2584.9157327234825
691,41.27458479752589
692,46.032
693,994.7438952632085
768,1.966139391807877
769,1.966139391807877
770,0.12998674
798,1858.9205322440266
2,1, 1,15, 0, 3, 0.00,60.00,WinterDesignDay
7,-3.0
8,20.099518138994643
143,18.000914551049
206,18.000914551049
269,20.099518138994643
332,17.999926991055318
395,21.000895156094572
458,21.000895156094572
521,17.999926991055318
584,46.032
647,555.0708075509295
648,0.029496
651,374.55745710147886
652,0.0042918984375
655,374.55745710147886
656,0.0042918984375
659,555.0708075509295
660,0.029496
663,91.86727312846885
664,0.0007842526245117187
667,272.26746180324596
668,0.0030244921875
671,272.26746180324596
672,0.0030244921875
675,91.86727312846885
676,0.0007842526245117187
677,2585.3921230707792
691,41.273708023613366
692,46.032
693,994.9272228602117
768,1.9661386964859153
769,1.9661386964859153
770,0.12998674
798,1859.2565293048167
2,1, 1,15, 0, 4, 0.00,60.00,WinterDesignDay
7,-3.0
8,20.099523482010742
143,18.00036349784609
206,18.00036349784609
269,20.099523482010742
332,18.000099468658284
395,21.001104201135863
458,21.001104201135863
521,18.000099468658284
584,46.032
647,555.0707283701801
648,0.029496
651,374.396747724555
652,0.0042882978515625
655,374.396747724555
656,0.0042882978515625
659,555.0707283701801
660,0.029496
663,91.89355079708974
664,0.0007844776611328125
667,272.2619220029613
668,0.0030244921875
671,272.2619220029613
672,0.0030244921875
675,91.89355079708974
676,0.0007844776611328125
677,2585.151988392894
691,41.27414998013548
692,46.032
693,994.8348126892172
768,1.966139046977711
769,1.966139046977711
770,0.12998674
798,1858.93495218947
2,1, 1,15, 0, 5, 0.00,60.00,WinterDesignDay
7,-3.0
8,20.09952690554993
143,18.000363101255218
206,18.000363101255218
269,20.09952690554993
332,17.999948390459508
395,21.001212510139148
458,21.001212510139148
521,17.999948390459508
584,46.032
647,555.0707389659026
648,0.029496
651,374.39592316611964
652,0.0042882978515625
655,374.39592316611964
656,0.0042882978515625
659,555.0707389659026
660,0.029496
663,91.84043600206144
664,0.0007840275878906249
667,272.26052161815306
668,0.0030244921875
671,272.26052161815306
672,0.0030244921875
675,91.84043600206144
676,0.0007840275878906249
677,2585.0541450779415
691,41.27433005613105
692,46.032
693,994.7971599955494
768,1.9661391897861382
769,1.9661391897861382
770,0.12998674
798,1858.9333242640446
2,1, 1,15, 0, 6, 0.00,60.00,WinterDesignDay
7,-3.0
8,20.09952622258755
143,18.00042468946451
206,18.00042468946451
269,20.09952622258755
332,17.99998690673545
395,21.001278142992724
458,21.001278142992724
521,17.99998690673545
584,46.032
647,555.0708371607914
648,0.029496
651,374.3923720651218
652,0.0042882978515625
655,374.3923720651218
656,0.0042882978515625
659,555.0708371607914
660,0.029496
663,91.86712494934122
664,0.0007842526245117186
667,272.2597425525481
668,0.0030244921875
671,272.2597425525481
672,0.0030244921875
675,91.86712494934122
676,0.0007842526245117186
677,2585.085496926323
691,41.27427235453628
692,46.032
693,994.8092250154598
768,1.9661391440261602
769,1.9661391440261602
770,0.12998674
798,1858.9264184518265
2,1, 1,15, 0, 7, 0.00,60.00,WinterDesignDay
7,-3.0
8,20.099521481094826
143,18.000690220697443
206,18.000690220697443
269,20.099521481094826
332,17.999997257284672
395,21.001319254640656
458,21.001319254640656
521,17.999997257284672
584,46.032
647,555.0707425076484
648,0.029496
651,374.3892428086944
652,0.0042882978515625
655,374.3892428086944
656,0.0042882978515625
659,555.0707425076484
660,0.029496
663,91.86716001619263
664,0.0007842526245117186
667,272.259240376511
668,0.0030244921875
671,272.259240376511
672,0.0030244921875
675,91.86716001619263
676,0.0007842526245117186
677,2585.1219714739054
691,41.27420522485581
692,46.032
693,994.82326138542
768,1.9661390907894778
769,1.9661390907894778
770,0.12998674
798,1858.9199706326856
2,1, 1,15, 0, 8, 0.00,60.00,WinterDesignDay
7,-3.0
8,20.09952576827315
143,18.000924195194504
206,18.000924195194504
269,20.09952576827315
332,17.99997943095163
395,21.00010217499517
458,21.00010217499517
521,17.99997943095163
584,46.032
647,555.0706399909275
648,0.029496
651,374.5573290691439
652,0.0042918984375
655,374.5573290691439
656,0.0042918984375
659,555.0706399909275
660,0.029496
663,91.86714065595437
664,0.0007842526245117186
667,272.16326550038696
668,0.00302269189453125
671,272.16326550038696
672,0.00302269189453125
675,91.86714065595437
676,0.0007842526245117186
677,2585.1811582381833
691,41.27409629441425
692,46.032
693,994.846038016666
768,1.9661390044023919
769,1.9661390044023919
770,0.12998674
798,1859.255938120143
2,1, 1,15, 0, 9, 0.00,60.00,WinterDesignDay
7,-3.0
8,20.0995304368996
143,18.000372718313272
206,18.000372718313272
269,20.0995304368996
332,17.999960323135483
395,21.00102739775514
458,21.00102739775514
521,17.999960323135483
584,46.032
647,555.0705762509988
648,0.029496
651,374.39662196852123
652,0.0042882978515625
655,374.39662196852123
656,0.0042882978515625
659,555.0705762509988
660,0.029496
663,91.89382614806564
664,0.0007844776611328125
667,272.2626326763618
668,0.0030244921875
671,272.2626326763618
672,0.0030244921875
675,91.89382614806564
676,0.0007844776611328125
677,2585.1399300727808
691,41.27417217290359
692,46.032
693,994.8301723289269
768,1.9661390645775794
769,1.9661390645775794
770,0.12998674
798,1858.9343964390403
2,1, 1,15, 0,10, 0.00,60.00,WinterDesignDay
7,-3.0
8,20.099533305552374
143,18.000371569540913
206,18.000371569540913
269,20.099533305552374
332,18.000118414721705
395,21.001167698148144
458,21.001167698148144
521,18.000118414721705
584,46.032
647,555.0705991689612
648,0.029496
651,374.39580737165534
652,0.0042882978515625
655,374.39580737165534
656,0.0042882978515625
659,555.0705991689612
660,0.029496
663,91.89348501284323
664,0.0007844776611328125
667,272.26109269946085
668,0.0030244921875
671,272.26109269946085
672,0.0030244921875
675,91.89348501284323
676,0.0007844776611328125
677,2585.147379929679
691,41.27415846179416
692,46.032
693,994.8330392307668
768,1.9661390537042576
769,1.9661390537042576
770,0.12998674
798,1858.9328130812332
2,1, 1,15, 0,11, 0.00,60.00,WinterDesignDay
7,-3.0
8,20.0995321356195
143,18.00043237687662
206,18.00043237687662
269,20.0995321356195
332,17.99997301540335
395,21.001247657835783
458,21.001247657835783
521,17.99997301540335
584,46.032
647,555.070708095612
648,0.029496
651,374.3922670630551
652,0.0042882978515625
655,374.3922670630551
656,0.0042882978515625
659,555.070708095612
660,0.029496
663,91.84035537805181
664,0.0007840275878906249
667,272.2601033599946
668,0.0030244921875
671,272.2601033599946
672,0.0030244921875
675,91.84035537805181
676,0.0007840275878906249
677,2585.045835842528
691,41.274345348886
692,46.032
693,994.7939623821428
768,1.9661392019139803
769,1.9661392019139803
770,0.12998674
798,1858.9259503173341
2,1, 1,15, 0,12, 0.00,60.00,WinterDesignDay
7,-3.0
8,20.099526956039206
143,18.000697194195574
206,18.000697194195574
269,20.099526956039206
332,18.000011601881052
395,21.001304577345273
458,21.001304577345273
521,18.000011601881052
584,46.032
647,555.070623064988
648,0.029496
651,374.3891471658942
652,0.0042882978515625
655,374.3891471658942
656,0.0042882978515625
659,555.070623064988
660,0.029496
663,91.86704358263671
664,0.0007842526245117186
667,272.2594386629797
668,0.0030244921875
671,272.2594386629797
672,0.0030244921875
675,91.86704358263671
676,0.0007842526245117186
677,2585.121685642429
691,41.27420575091513
692,46.032
693,994.8231513899132
768,1.9661390912066667
769,1.9661390912066667
770,0.12998674
798,1858.9195404617644
2,1, 1,15, 0,13, 0.00,60.00,WinterDesignDay
7,-3.0
8,20.099530845657682
143,18.000930570333733
206,18.000930570333733
269,20.099530845657682
332,18.000020800678907
395,21.000378496260087
458,21.000378496260087
521,18.000020800678907
584,46.032
647,555.0705292619248
648,0.029496
651,374.557241900661
652,0.0042918984375
655,374.557241900661
656,0.0042918984375
659,555.0705292619248
660,0.029496
663,91.86708170682422
664,0.0007842526245117186
667,272.15662203752305
668,0.00302269189453125
671,272.15662203752305
672,0.00302269189453125
675,91.86708170682422
676,0.0007842526245117186
677,2585.1664231313393
691,41.27412341368179
692,46.032
693,994.8403675580921
768,1.966139025909146
769,1.966139025909146
770,0.12998674
798,1859.2555423251715
2,1, 1,15, 0,14, 0.00,60.00,WinterDesignDay
7,-3.0
8,20.09953515190794
143,18.00037854747567
206,18.00037854747567
269,20.09953515190794
332,18.000003991677247
395,21.000900215331708
458,21.000900215331708
521,18.000003991677247
584,46.032
647,555.0704734535337
648,0.029496
651,374.3965423963184
652,0.0042882978515625
655,374.3965423963184
656,0.0042882978515625
659,555.0704734535337
660,0.029496
663,91.89361314376185
664,0.0007844776611328125
667,272.26743909860977
668,0.0030244921875
671,272.26743909860977
672,0.0030244921875
675,91.89361314376185
676,0.0007844776611328125
677,2585.1496776956783
691,41.274154232864475
692,46.032
693,994.833923471855
768,1.966139050350301
769,1.966139050350301
770,0.12998674
798,1858.9340316997043
2,1, 1,15, 0,15, 0.00,60.00,WinterDesignDay
7,-3.0
8,20.09953768911138
143,18.000376913346162
206,18.000376913346162
269,20.09953768911138
332,18.000127266415422
395,21.001115064347932
458,21.001115064347932
521,18.000127266415422
584,46.032
647,555.0705036202326
648,0.029496
651,374.3957345669501
652,0.0042882978515625
655,374.3957345669501
656,0.0042882978515625
659,555.0705036202326
660,0.029496
663,91.8934428206459
664,0.0007844776611328125
667,272.2618221171613
668,0.0030244921875
671,272.2618221171613
672,0.0030244921875
675,91.8934428206459
676,0.0007844776611328125
677,2585.148404948734
691,41.27415657529505
692,46.032
693,994.8334336851912
768,1.9661390522081774
769,1.9661390522081774
770,0.12998674
798,1858.9324763743653
2,1, 1,15, 0,16, 0.00,60.00,WinterDesignDay
7,-3.0
8,20.099536215001237
143,18.000437283377426
206,18.000437283377426
269,20.099536215001237
332,17.999969704257836
395,21.00122540289908
458,21.00122540289908
521,17.999969704257836
584,46.032
647,555.0706192025335
648,0.029496
651,374.39220024675024
652,0.0042882978515625
655,374.39220024675024
656,0.0042882978515625
659,555.0706192025335
660,0.029496
663,91.84035993213492
664,0.0007840275878906249
667,272.2603847996623
668,0.0030244921875
671,272.2603847996623
672,0.0030244921875
675,91.84035993213492
676,0.0007840275878906249
677,2585.0461063192456
691,41.27434485108639
692,46.032
693,994.7940664687325
768,1.9661392015192027
769,1.9661392015192027
770,0.12998674
798,1858.9256388985677
2,1, 1,15, 0,17, 0.00,60.00,WinterDesignDay
7,-3.0
8,20.09952141569299
143,18.000228526814254
206,18.000228526814254
269,20.09952141569299
332,18.000004131509364
395,21.001291237747203
458,21.001291237747203
521,18.000004131509364
584,46.032
647,555.0705402958392
648,0.029496
651,374.401458925727
652,0.0042882978515625
655,374.401458925727
656,0.0042882978515625
659,555.0705402958392
660,0.029496
663,91.86706595492856
664,0.0007842526245117186
667,272.2595994348788
668,0.0030244921875
671,272.2595994348788
672,0.0030244921875
675,91.86706595492856
676,0.0007842526245117186
677,2585.104089027729
691,41.2742381366526
692,46.032
693,994.8163797474845
768,1.9661391168898954
769,1.9661391168898954
770,0.12998674
798,1858.9439984431324
2,1, 1,15, 0,18, 0.00,60.00,WinterDesignDay
7,-3.0
8,20.099507192607874
143,18.00068636434029
206,18.00068636434029
269,20.099507192607874
332,18.000012238200863
395,21.00079873542314
458,21.00079873542314
521,18.000012238200863
584,46.032
647,555.0711951503995
648,0.029496
651,374.3863372081224
652,0.0042882978515625
655,374.3863372081224
656,0.0042882978515625
659,555.0711951503995
660,0.029496
663,91.86710938698862
664,0.0007842526245117186
667,272.15093924337674
668,0.00302269189453125
671,272.15093924337674
672,0.00302269189453125
675,91.86710938698862
676,0.0007842526245117186
677,2584.9274001142708
691,41.27456332424473
692,46.032
693,994.7483851835619
768,1.9661393747792029
769,1.9661393747792029
770,0.12998674
798,1858.9150647170436
2,1, 1,15, 0,19, 0.00,60.00,WinterDesignDay
7,-3.0
8,20.09951508082645
143,18.000915523565457
206,18.000915523565457
269,20.09951508082645
332,17.99995911683944
395,21.00055463459697
458,21.00055463459697
521,17.99995911683944
584,46.032
647,555.0708779396732
648,0.029496
651,374.55737177161046
652,0.0042918984375
655,374.55737177161046
656,0.0042918984375
659,555.0708779396732
660,0.029496
663,91.86717935539562
664,0.0007842526245117186
667,272.2723282951051
668,0.0030244921875
671,272.2723282951051
672,0.0030244921875
675,91.86717935539562
676,0.0007842526245117186
677,2585.372459213273
691,41.273744214013476
692,46.032
693,994.9196556881122
768,1.9661387251865359
769,1.9661387251865359
770,0.12998674
798,1859.2564994225672
2,1, 1,15, 0,20, 0.00,60.00,WinterDesignDay
7,-3.0
8,20.0995210988252
143,18.000361179976235
206,18.000361179976235
269,20.0995210988252
332,17.999961921552977
395,21.00106394720514
458,21.00106394720514
521,17.999961921552977
584,46.032
647,555.0707811621625
648,0.029496
651,374.3967756784656
652,0.0042882978515625
655,374.3967756784656
656,0.0042882978515625
659,555.0707811621625
660,0.029496
663,91.89384008074964
664,0.0007844776611328125
667,272.26229537903134
668,0.0030244921875
671,272.26229537903134
672,0.0030244921875
675,91.89384008074964
676,0.0007844776611328125
677,2585.139780616252
691,41.27417244797127
692,46.032
693,994.8301148141043
768,1.9661390647957209
769,1.9661390647957209
770,0.12998674
798,1858.935113681256
2,1, 1,15, 0,21, 0.00,60.00,WinterDesignDay
7,-3.0
8,20.099524800007515
143,18.00036037627299
206,18.00036037627299
269,20.099524800007515
332,18.00012707234125
395,21.00119269448504
458,21.00119269448504
521,18.00012707234125
584,46.032
647,555.0707852321852
648,0.029496
651,374.39595993732644
652,0.0042882978515625
655,374.39595993732644
656,0.0042882978515625
659,555.0707852321852
660,0.029496
663,91.89346216862964
664,0.0007844776611328125
667,272.26076129255097
668,0.0030244921875
671,272.26076129255097
672,0.0030244921875
675,91.89346216862964
676,0.0007844776611328125
677,2585.1473271883265
691,41.27415855886213
692,46.032
693,994.8330189345004
768,1.9661390537812369
769,1.9661390537812369
770,0.12998674
798,1858.9334903390236
2,1, 1,15, 0,22, 0.00,60.00,WinterDesignDay
7,-3.0
8,20.099524306773286
143,18.000422088887458
206,18.000422088887458
269,20.099524306773286
332,18.00000431596249
395,21.001264319547992
458,21.001264319547992
521,18.00000431596249
584,46.032
647,555.0708791032699
648,0.029496
651,374.39240738041804
652,0.0042882978515625
655,374.39240738041804
656,0.0042882978515625
659,555.0708791032699
660,0.029496
663,91.8670276708037
664,0.0007842526245117187
667,272.25990513486323
668,0.0030244921875
671,272.25990513486323
672,0.0030244921875
675,91.8670276708037
676,0.0007842526245117187
677,2585.0858212825724
691,41.27427175757394
692,46.032
693,994.8093498363177
768,1.9661391435528135
769,1.9661391435528135
770,0.12998674
798,1858.926572967376
2,1, 1,15, 0,23, 0.00,60.00,WinterDesignDay
7,-3.0
8,20.09951972085578
143,18.000687853979407
206,18.000687853979407
269,20.09951972085578
332,17.999993632519242
395,21.00131048821199
458,21.00131048821199
521,17.999993632519242
584,46.032
647,555.0707809743186
648,0.029496
651,374.38927513747103
652,0.0042882978515625
655,374.38927513747103
656,0.0042882978515625
659,555.0707809743186
660,0.029496
663,91.86717247450126
664,0.0007842526245117187
667,272.25934359946945
668,0.0030244921875
671,272.25934359946945
672,0.0030244921875
675,91.86717247450126
676,0.0007842526245117187
677,2585.122348098675
691,41.27420453169573
692,46.032
693,994.823406320586
768,1.966139090239557
769,1.966139090239557
770,0.12998674
798,1858.9201122235793
2,1, 1,15, 0,24, 0.00,60.00,WinterDesignDay
7,-3.0
8,20.099524144537515
143,18.000922048156134
206,18.000922048156134
269,20.099524144537515
332,17.999999524192607
395,21.000189922041045
458,21.000189922041045
521,17.999999524192607
584,46.032
647,555.0706754441279
648,0.029496
651,374.55735849070965
652,0.0042918984375
655,374.55735849070965
656,0.0042918984375
659,555.0706754441279
660,0.029496
663,91.86711813747715
664,0.0007842526245117187
667,272.161286201079
668,0.00302269189453125
671,272.161286201079
672,0.00302269189453125
675,91.86711813747715
676,0.0007842526245117187
677,2585.1766240783036
691,41.27410463932116
692,46.032
693,994.8442931521028
768,1.9661390110202441
769,1.9661390110202441
770,0.12998674
798,1859.2560678696752
End of Data
 Number of Records Written=         816
