Program Version,EnergyPlus, Version 24.2.0-94a887817b, YMD=2026.05.15 11:04
1,5,Environment Title[],Latitude[deg],Longitude[deg],Time Zone[],Elevation[m]
2,8,Day of Simulation[],Month[],Day of Month[],DST Indicator[1=yes 0=no],Hour[],StartMinute[],EndMinute[],DayType
3,5,Cumulative Day of Simulation[],Month[],Day of Month[],DST Indicator[1=yes 0=no],DayType  ! When Daily Report Variables Requested
4,2,Cumulative Days of Simulation[],Month[]  ! When Monthly Report Variables Requested
5,1,Cumulative Days of Simulation[] ! When Run Period Report Variables Requested
6,1,Calendar Year of Simulation[] ! When Annual Report Variables Requested
7,1,Environment,Site Outdoor Air Drybulb Temperature [C] !Hourly
8,1,Z1,Zone Air Temperature [C] !Hourly
143,1,Z2,Zone Air Temperature [C] !Hourly
206,1,Z3,Zone Air Temperature [C] !Hourly
269,1,Z4,Zone Air Temperature [C] !Hourly
332,1,Z5,Zone Air Temperature [C] !Hourly
395,1,Z6,Zone Air Temperature [C] !Hourly
458,1,Z7,Zone Air Temperature [C] !Hourly
521,1,Z8,Zone Air Temperature [C] !Hourly
584,1,HOT WATER LOOP,Plant Supply Side Outlet Temperature [C] !Hourly
647,1,Z1 RADIATOR,Baseboard Total Heating Rate [W] !Hourly
648,1,Z1 RADIATOR,Baseboard Hot Water Mass Flow Rate [kg/s] !Hourly
651,1,Z2 RADIATOR,Baseboard Total Heating Rate [W] !Hourly
652,1,Z2 RADIATOR,Baseboard Hot Water Mass Flow Rate [kg/s] !Hourly
655,1,Z3 RADIATOR,Baseboard Total Heating Rate [W] !Hourly
656,1,Z3 RADIATOR,Baseboard Hot Water Mass Flow Rate [kg/s] !Hourly
659,1,Z4 RADIATOR,Baseboard Total Heating Rate [W] !Hourly
660,1,Z4 RADIATOR,Baseboard Hot Water Mass Flow Rate [kg/s] !Hourly
663,1,Z5 RADIATOR,Baseboard Total Heating Rate [W] !Hourly
664,1,Z5 RADIATOR,Baseboard Hot Water Mass Flow Rate [kg/s] !Hourly
667,1,Z6 RADIATOR,Baseboard Total Heating Rate [W] !Hourly
668,1,Z6 RADIATOR,Baseboard Hot Water Mass Flow Rate [kg/s] !Hourly
671,1,Z7 RADIATOR,Baseboard Total Heating Rate [W] !Hourly
672,1,Z7 RADIATOR,Baseboard Hot Water Mass Flow Rate [kg/s] !Hourly
675,1,Z8 RADIATOR,Baseboard Total Heating Rate [W] !Hourly
676,1,Z8 RADIATOR,Baseboard Hot Water Mass Flow Rate [kg/s] !Hourly
677,1,HEAT PUMP,Heat Pump Load Side Heat Transfer Rate [W] !Hourly
691,1,HEAT PUMP,Heat Pump Load Side Inlet Temperature [C] !Hourly
692,1,HEAT PUMP,Heat Pump Load Side Outlet Temperature [C] !Hourly
693,1,HEAT PUMP,Heat Pump Electricity Rate [W] !Hourly
768,1,SUPPLY PUMP,Pump Electricity Rate [W] !Hourly
769,1,SUPPLY PUMP,Pump Fluid Heat Gain Rate [W] !Hourly
770,1,SUPPLY PUMP,Pump Mass Flow Rate [kg/s] !Hourly
798,1,Baseboard Total Heating Rate All Zones,PythonPlugin:OutputVariable [W] !Hourly
End of Data Dictionary
1,WINTER DESIGN DAY IN (MID) UK,  53.35,  -2.28,   0.00,  69.00
2,1, 1,15, 0, 1, 0.00,60.00,WinterDesignDay
7,-3.0
8,20.909864665356892
143,17.999990661916495
206,17.999990661916495
269,20.909864665356892
332,17.999623152830306
395,20.999702496991368
458,20.999702496991368
521,17.999623152830306
584,51.276647057348725
647,401.67212983097295
648,0.029496
651,98.16025615701663
652,0.0007102155761718751
655,98.16025615701663
656,0.0007102155761718751
659,401.67212983097295
660,0.029496
663,235.11137374160253
664,0.0017426835937500002
667,583.3370059770427
668,0.014892023437500002
671,583.3370059770427
672,0.014892023437500002
675,235.11137374160253
676,0.0017426835937500002
677,2634.4341254600586
691,46.42842694943512
692,51.276647057348725
693,1139.7973495233764
768,1.9703488989822429
769,1.9703488989822429
770,0.12998674
798,999.6647719759792
2,1, 1,15, 0, 2, 0.00,60.00,WinterDesignDay
7,-3.0
8,20.91212142723058
143,17.99986426459114
206,17.99986426459114
269,20.91212142723058
332,18.00008913444371
395,20.999348238184247
458,20.999348238184247
521,18.00008913444371
584,51.29102370369735
647,401.8325895852436
648,0.029496
651,98.11340974078337
652,0.0007095404663085938
655,98.11340974078337
656,0.0007095404663085938
659,401.8325895852436
660,0.029496
663,235.10129925929664
664,0.0017417834472656251
667,583.4056074393844
668,0.01486321875
671,583.4056074393844
672,0.01486321875
675,235.10129925929664
676,0.0017417834472656251
677,2634.716667033478
691,46.442286839952224
692,51.29102370369735
693,1140.2650129531
768,1.9703610415656627
769,1.9703610415656627
770,0.12998674
798,999.8919986520541
2,1, 1,15, 0, 3, 0.00,60.00,WinterDesignDay
7,-3.0
8,20.914342205506877
143,18.000108118820197
206,18.000108118820197
269,20.914342205506877
332,17.999768804940167
395,21.000147137749188
458,21.000147137749188
521,17.999768804940167
584,51.305039508458066
647,401.98863696765557
648,0.029496
651,98.09431496096633
652,0.0007090903930664064
655,98.09431496096633
656,0.0007090903930664064
659,401.98863696765557
660,0.029496
663,234.98826330859256
664,0.0017399831542968753
667,583.407724845626
668,0.014834414062499999
671,583.407724845626
672,0.014834414062499999
675,234.98826330859256
676,0.0017399831542968753
677,2634.7894214378994
691,46.45617197520979
692,51.305039508458066
693,1140.6332419623106
768,1.970373206419625
769,1.970373206419625
770,0.12998674
798,1000.1659038572438
2,1, 1,15, 0, 4, 0.00,60.00,WinterDesignDay
7,-3.0
8,20.91648115366863
143,17.99988112967019
206,17.99988112967019
269,20.91648115366863
332,17.999984519781595
395,20.99997419746358
458,20.99997419746358
521,17.999984519781595
584,51.31870198046825
647,402.1410542793941
648,0.029496
651,97.98418686000603
652,0.0007079652099609376
655,97.98418686000603
656,0.0007079652099609376
659,402.1410542793941
660,0.029496
663,234.97691506839251
664,0.0017390830078125002
667,583.4485260446179
668,0.014805609375
671,583.4485260446179
672,0.014805609375
675,234.97691506839251
676,0.0017390830078125002
677,2634.870772650927
691,46.46968787122013
692,51.31870198046825
693,1140.9967581629735
768,1.9703850479189495
769,1.9703850479189495
770,0.12998674
798,1000.2504822788003
2,1, 1,15, 0, 5, 0.00,60.00,WinterDesignDay
7,-3.0
8,20.91859273185875
143,18.000091952431895
206,18.000091952431895
269,20.91859273185875
332,17.99997874271425
395,20.998816337931864
458,20.998816337931864
521,17.99997874271425
584,51.33202265876976
647,402.2894754455954
648,0.029496
651,97.99366524555535
652,0.0007077401733398439
655,97.99366524555535
656,0.0007077401733398439
659,402.2894754455954
660,0.029496
663,234.8531009208171
664,0.0017372827148437503
667,583.2396092451208
668,0.014748
671,583.2396092451208
672,0.014748
675,234.8531009208171
676,0.0017372827148437503
677,2634.5168926981332
691,46.48366304485279
692,51.33202265876976
693,1141.1635465172503
768,1.9703972919503197
769,1.9703972919503197
770,0.12998674
798,1000.5662813823014
2,1, 1,15, 0, 6, 0.00,60.00,WinterDesignDay
7,-3.0
8,20.920637576661562
143,18.000131885586665
206,18.000131885586665
269,20.920637576661562
332,17.999474371973818
395,21.000174651803835
458,21.000174651803835
521,17.999474371973818
584,51.34500644412199
647,402.4341113955555
648,0.029496
651,97.91076139031267
652,0.0007068400268554688
655,97.91076139031267
656,0.0007068400268554688
659,402.4341113955555
660,0.029496
663,234.7334033198519
664,0.0017354824218750002
667,583.4725562378577
668,0.014748
671,583.4725562378577
672,0.014748
675,234.7334033198519
676,0.0017354824218750002
677,2634.8443358878226
691,46.496047102305965
692,51.34500644412199
693,1141.6173557357827
768,1.9704081420888886
769,1.9704081420888886
770,0.12998674
798,1000.6897455717362
2,1, 1,15, 0, 7, 0.00,60.00,WinterDesignDay
7,-3.0
8,20.922610280864568
143,17.999921712463365
206,17.999921712463365
269,20.922610280864568
332,18.000182553343627
395,21.00060345590996
458,21.00060345590996
521,18.000182553343627
584,51.35766519470275
647,402.57558131388174
648,0.029496
651,97.85849753448502
652,0.0007061649169921876
655,97.85849753448502
656,0.0007061649169921876
659,402.57558131388174
660,0.029496
663,234.8194275802422
664,0.0017354824218750002
667,583.4570817554858
668,0.014719195312499999
671,583.4570817554858
672,0.014719195312499999
675,234.8194275802422
676,0.0017354824218750002
677,2635.131556641875
691,46.508180089386656
692,51.35766519470275
693,1142.0459873629518
768,1.9704187723738005
769,1.9704187723738005
770,0.12998674
798,1000.8681576967336
2,1, 1,15, 0, 8, 0.00,60.00,WinterDesignDay
7,-3.0
8,20.924574648627512
143,17.999981814598648
206,17.999981814598648
269,20.924574648627512
332,18.000030745264617
395,20.999899606237612
458,20.999899606237612
521,18.000030745264617
584,51.3700079828471
647,402.7129771307325
648,0.029496
651,97.83484523183286
652,0.0007057148437500001
655,97.83484523183286
656,0.0007057148437500001
659,402.7129771307325
660,0.029496
663,234.69012408872624
664,0.00173368212890625
667,583.2121702477561
668,0.014661585937500003
671,583.2121702477561
672,0.014661585937500003
675,234.69012408872624
676,0.00173368212890625
677,2634.663306904385
691,46.52138767072033
692,51.3700079828471
693,1142.1396098808918
768,1.9704303442887425
769,1.9704303442887425
770,0.12998674
798,1001.0956447251308
2,1, 1,15, 0, 9, 0.00,60.00,WinterDesignDay
7,-3.0
8,20.926497789950215
143,17.99992387614695
206,17.99992387614695
269,20.926497789950215
332,17.99989947136636
395,20.999294939045114
458,20.999294939045114
521,17.99989947136636
584,51.38203778546922
647,402.84674303636484
648,0.029496
651,97.74897322401526
652,0.000704814697265625
655,97.74897322401526
656,0.000704814697265625
659,402.84674303636484
660,0.029496
663,234.55805546141232
664,0.0017318818359375002
667,583.225416413532
668,0.01463278125
671,583.225416413532
672,0.01463278125
675,234.55805546141232
676,0.0017318818359375002
677,2634.487419113283
691,46.5337440295086
692,51.38203778546922
693,1142.3523701323488
768,1.970441170522398
769,1.970441170522398
770,0.12998674
798,1001.1914325207601
2,1, 1,15, 0,10, 0.00,60.00,WinterDesignDay
7,-3.0
8,20.92834829101362
143,17.999950063399513
206,17.999950063399513
269,20.92834829101362
332,18.0000500438394
395,21.000620121290584
458,21.000620121290584
521,18.0000500438394
584,51.39376090349988
647,402.9773002929255
648,0.029496
651,97.75385795792789
652,0.0007045896606445313
655,97.75385795792789
656,0.0007045896606445313
659,402.9773002929255
660,0.029496
663,234.53153186603717
664,0.0017309816894531252
667,583.4279873976302
668,0.01463278125
671,583.4279873976302
672,0.01463278125
675,234.53153186603717
676,0.0017309816894531252
677,2635.076771927345
691,46.544385021377394
692,51.39376090349988
693,1142.8896207932758
768,1.9704504939051333
769,1.9704504939051333
770,0.12998674
798,1001.4623165017068
2,1, 1,15, 0,11, 0.00,60.00,WinterDesignDay
7,-3.0
8,20.930154227950382
143,18.00007251354117
206,18.00007251354117
269,20.930154227950382
332,18.000048225038583
395,20.99937037339619
458,20.99937037339619
521,18.000048225038583
584,51.40518874041804
647,403.1045864776919
648,0.029496
651,97.6963953972831
652,0.0007039145507812501
655,97.6963953972831
656,0.0007039145507812501
659,403.1045864776919
660,0.029496
663,234.50574090390117
664,0.0017300815429687503
667,583.1678061103134
668,0.014575171875000001
671,583.1678061103134
672,0.014575171875000001
675,234.50574090390117
676,0.0017300815429687503
677,2634.615775794039
691,46.556664083900934
692,51.40518874041804
693,1142.9642537876723
768,1.970461252632798
769,1.970461252632798
770,0.12998674
798,1001.6019637499501
2,1, 1,15, 0,12, 0.00,60.00,WinterDesignDay
7,-3.0
8,20.931918280025226
143,18.00015514463187
206,18.00015514463187
269,20.931918280025226
332,17.99964512357405
395,20.999682344599744
458,20.999682344599744
521,17.99964512357405
584,51.416328532978724
647,403.2286840280676
648,0.029496
651,97.63777954785913
652,0.0007032394409179688
655,97.63777954785913
656,0.0007032394409179688
659,403.2286840280676
660,0.029496
663,234.36911921987553
664,0.0017282812500000002
667,583.1204701995728
668,0.0145463671875
671,583.1204701995728
672,0.0145463671875
675,234.36911921987553
676,0.0017282812500000002
677,2634.441985323808
691,46.568126366902966
692,51.416328532978724
693,1143.156465961576
768,1.9704712958211967
769,1.9704712958211967
770,0.12998674
798,1001.7329271518533
2,1, 1,15, 0,13, 0.00,60.00,WinterDesignDay
7,-3.0
8,20.933623470663573
143,18.000022843209308
206,18.000022843209308
269,20.933623470663573
332,18.000211517931362
395,20.9989531817694
458,20.9989531817694
521,18.000211517931362
584,51.42718766980913
647,403.34981662740483
648,0.029496
651,97.60994621365934
652,0.0007027893676757814
655,97.60994621365934
656,0.0007027893676757814
659,403.34981662740483
660,0.029496
663,234.4428027285093
664,0.0017282812500000002
667,583.1099436172315
668,0.014517562500000001
671,583.1099436172315
672,0.014517562500000001
675,234.4428027285093
676,0.0017282812500000002
677,2634.662476396703
691,46.57858215381083
692,51.42718766980913
693,1143.5130523781445
768,1.9704804572086894
769,1.9704804572086894
770,0.12998674
798,1001.9195256821284
2,1, 1,15, 0,14, 0.00,60.00,WinterDesignDay
7,-3.0
8,20.935307482401072
143,17.999839011632396
206,17.999839011632396
269,20.935307482401072
332,18.00007341680561
395,21.000133184335805
458,21.000133184335805
521,18.00007341680561
584,51.43777403148137
647,403.46761925626413
648,0.029496
651,97.5508644477681
652,0.0007021142578125001
655,97.5508644477681
656,0.0007021142578125001
659,403.46761925626413
660,0.029496
663,234.29884045395883
664,0.0017264809570312501
667,583.2930593167341
668,0.014517562500000001
671,583.2930593167341
672,0.014517562500000001
675,234.29884045395883
676,0.0017264809570312501
677,2634.8766245086003
691,46.58877678081256
692,51.43777403148137
693,1143.8603658030481
768,1.9704893898511453
769,1.9704893898511453
770,0.12998674
798,1002.0369674080645
2,1, 1,15, 0,15, 0.00,60.00,WinterDesignDay
7,-3.0
8,20.936935174303322
143,18.00012716787214
206,18.00012716787214
269,20.936935174303322
332,18.000050910676535
395,21.000752546046257
458,21.000752546046257
521,18.000050910676535
584,51.44809235908515
647,403.58267077002057
648,0.029496
651,97.55007495978822
652,0.0007018892211914064
655,97.55007495978822
656,0.0007018892211914064
659,403.58267077002057
660,0.029496
663,234.26408931407127
664,0.0017255808105468753
667,583.2125675494575
668,0.014488757812500003
671,583.2125675494575
672,0.014488757812500003
675,234.26408931407127
676,0.0017255808105468753
677,2634.900219546889
691,46.599054072319134
692,51.44809235908515
693,1144.1185218459846
768,1.970498395010205
769,1.970498395010205
770,0.12998674
798,1002.2654914596176
2,1, 1,15, 0,16, 0.00,60.00,WinterDesignDay
7,-3.0
8,20.938526324054582
143,17.999933218931474
206,17.999933218931474
269,20.938526324054582
332,18.000104528237102
395,21.0001135792994
458,21.0001135792994
521,18.000104528237102
584,51.45815070585331
647,403.6946304124613
648,0.029496
651,97.48921930816601
652,0.000701214111328125
655,97.48921930816601
656,0.000701214111328125
659,403.6946304124613
660,0.029496
663,234.2267662915359
664,0.0017246806640625002
667,583.1802084355676
668,0.014459953125000001
671,583.1802084355676
672,0.014459953125000001
675,234.2267662915359
676,0.0017246806640625002
677,2634.7857812760976
691,46.60932540203993
692,51.45815070585331
693,1144.3105211177653
768,1.9705073950212715
769,1.9705073950212715
770,0.12998674
798,1002.3676994412547
2,1, 1,15, 0,17, 0.00,60.00,WinterDesignDay
7,-3.0
8,20.940088422223994
143,17.99992728112565
206,17.99992728112565
269,20.940088422223994
332,17.999867321322952
395,20.999889217943515
458,20.999889217943515
521,17.999867321322952
584,51.467955172637446
647,403.803746688078
648,0.029496
651,97.42684321323762
652,0.0007005390014648439
655,97.42684321323762
656,0.0007005390014648439
659,403.803746688078
660,0.029496
663,234.07743316600377
664,0.0017228803710937503
667,583.1137413621723
668,0.014431148437500003
671,583.1137413621723
672,0.014431148437500003
675,234.07743316600377
676,0.0017228803710937503
677,2634.4785005602753
691,46.61969776674608
692,51.467955172637446
693,1144.412600697297
768,1.9705164836507396
769,1.9705164836507396
770,0.12998674
798,1002.4611798026312
2,1, 1,15, 0,18, 0.00,60.00,WinterDesignDay
7,-3.0
8,20.941594185191835
143,18.000071279323528
206,18.000071279323528
269,20.941594185191835
332,18.000172900819315
395,20.99937646969748
458,20.99937646969748
521,18.000172900819315
584,51.47751069935207
647,403.91024121495536
648,0.029496
651,97.42441194666357
652,0.0007003139648437501
655,97.42441194666357
656,0.0007003139648437501
659,403.91024121495536
660,0.029496
663,234.14455987873478
664,0.0017228803710937503
667,583.0634035044059
668,0.014402343750000001
671,583.0634035044059
672,0.014402343750000001
675,234.14455987873478
676,0.0017228803710937503
677,2634.6701579135115
691,46.62890272531712
692,51.47751069935207
693,1144.725453880107
768,1.9705245494228447
769,1.9705245494228447
770,0.12998674
798,1002.6693063232378
2,1, 1,15, 0,19, 0.00,60.00,WinterDesignDay
7,-3.0
8,20.943072227176952
143,18.000086779054197
206,18.000086779054197
269,20.943072227176952
332,17.99968996339228
395,21.000419608970102
458,21.000419608970102
521,17.99968996339228
584,51.48682578712983
647,404.01394895999516
648,0.029496
651,97.36009069272055
652,0.0006996388549804688
655,97.36009069272055
656,0.0006996388549804688
659,404.01394895999516
660,0.029496
663,233.9944970894552
664,0.0017210800781250002
667,583.2234495970195
668,0.014402343750000001
671,583.2234495970195
672,0.014402343750000001
675,233.9944970894552
676,0.0017210800781250002
677,2634.774371523754
691,46.63802813544718
692,51.48682578712983
693,1144.994548284661
768,1.970532545559427
769,1.970532545559427
770,0.12998674
798,1002.7480793054314
2,1, 1,15, 0,20, 0.00,60.00,WinterDesignDay
7,-3.0
8,20.944486249122086
143,18.000036915222235
206,18.000036915222235
269,20.944486249122086
332,18.000184207507694
395,20.999301787772417
458,20.999301787772417
521,18.000184207507694
584,51.49590610835648
647,404.11535931804093
648,0.029496
651,97.35708205490626
652,0.0006994138183593751
655,97.35708205490626
656,0.0006994138183593751
659,404.11535931804093
660,0.029496
663,234.05599269673053
664,0.0017210800781250002
667,582.8905086097085
668,0.014344734375000001
671,582.8905086097085
672,0.014344734375000001
675,234.05599269673053
676,0.0017210800781250002
677,2634.466857909909
691,46.647676618329356
692,51.49590610835648
693,1145.0790523193714
768,1.9705410001114805
769,1.9705410001114805
770,0.12998674
798,1002.9448827458943
2,1, 1,15, 0,21, 0.00,60.00,WinterDesignDay
7,-3.0
8,20.945907311049787
143,17.99982506903986
206,17.99982506903986
269,20.945907311049787
332,18.000287894823856
395,20.99966932691885
458,20.99966932691885
521,18.000287894823856
584,51.504759804707064
647,404.2138703405177
648,0.029496
651,97.29225499835144
652,0.0006987387084960939
655,97.29225499835144
656,0.0006987387084960939
659,404.2138703405177
660,0.029496
663,234.0072468750169
664,0.0017201799316406252
667,583.0700325075909
668,0.014344734375000001
671,583.0700325075909
672,0.014344734375000001
675,234.0072468750169
676,0.0017201799316406252
677,2634.7222897431907
691,46.65606218688173
692,51.504759804707064
693,1145.402800772227
768,1.9705483480818495
769,1.9705483480818495
770,0.12998674
798,1003.0122506777382
2,1, 1,15, 0,22, 0.00,60.00,WinterDesignDay
7,-3.0
8,20.947266123209886
143,17.999994288281098
206,17.999994288281098
269,20.947266123209886
332,17.999948429743426
395,20.99932715539402
458,20.99932715539402
521,17.999948429743426
584,51.51338741978711
647,404.3098815217375
648,0.029496
651,97.28697074866092
652,0.0006985136718750001
655,97.28697074866092
656,0.0006985136718750001
659,404.3098815217375
660,0.029496
663,233.85074068194723
664,0.001718379638671875
667,582.978306281654
668,0.0143159296875
671,582.978306281654
672,0.0143159296875
675,233.85074068194723
676,0.001718379638671875
677,2634.422464559
691,46.665243701194086
692,51.51338741978711
693,1145.4797209290036
768,1.9705563935752517
769,1.9705563935752517
770,0.12998674
798,1003.1937045407967
2,1, 1,15, 0,23, 0.00,60.00,WinterDesignDay
7,-3.0
8,20.948578405786073
143,18.00011176690134
206,18.00011176690134
269,20.948578405786073
332,17.9995953443884
395,20.998623625779736
458,20.998623625779736
521,17.9995953443884
584,51.52179822758278
647,404.4037459033826
648,0.029496
651,97.25008524397694
652,0.0006980635986328124
655,97.25008524397694
656,0.0006980635986328124
659,404.4037459033826
660,0.029496
663,233.8047607935257
664,0.0017174794921875002
667,582.9051717720217
668,0.014287125000000001
671,582.9051717720217
672,0.014287125000000001
675,233.8047607935257
676,0.0017174794921875002
677,2634.2723377319
691,46.67393280453632
692,51.52179822758278
693,1145.6165070824277
768,1.970564007640331
769,1.970564007640331
770,0.12998674
798,1003.3076622947192
2,1, 1,15, 0,24, 0.00,60.00,WinterDesignDay
7,-3.0
8,20.94983380998645
143,18.000067374983118
206,18.000067374983118
269,20.94983380998645
332,17.999958408279497
395,20.999443253034997
458,20.999443253034997
521,17.999958408279497
584,51.530000703184385
647,404.4956894841468
648,0.029496
651,97.21334103415903
652,0.000697613525390625
655,97.21334103415903
656,0.000697613525390625
659,404.4956894841468
660,0.029496
663,233.8601314638201
664,0.0017174794921875002
667,583.0478628780712
668,0.014287125000000001
671,583.0478628780712
672,0.014287125000000001
675,233.8601314638201
676,0.0017174794921875002
677,2634.770793329335
691,46.68121966004172
692,51.530000703184385
693,1146.0303605006086
768,1.9705703929950529
769,1.9705703929950529
770,0.12998674
798,1003.4180610366118
End of Data
 Number of Records Written=         816
