Program Version,EnergyPlus, Version 24.2.0-94a887817b, YMD=2026.04.20 12:10
1,5,Environment Title[],Latitude[deg],Longitude[deg],Time Zone[],Elevation[m]
2,8,Day of Simulation[],Month[],Day of Month[],DST Indicator[1=yes 0=no],Hour[],StartMinute[],EndMinute[],DayType
3,5,Cumulative Day of Simulation[],Month[],Day of Month[],DST Indicator[1=yes 0=no],DayType  ! When Daily Report Variables Requested
4,2,Cumulative Days of Simulation[],Month[]  ! When Monthly Report Variables Requested
5,1,Cumulative Days of Simulation[] ! When Run Period Report Variables Requested
6,1,Calendar Year of Simulation[] ! When Annual Report Variables Requested
7,1,Environment,Site Outdoor Air Drybulb Temperature [C] !Hourly
8,1,Z1,Zone Air Temperature [C] !Hourly
143,1,Z2,Zone Air Temperature [C] !Hourly
206,1,Z3,Zone Air Temperature [C] !Hourly
269,1,Z4,Zone Air Temperature [C] !Hourly
332,1,Z5,Zone Air Temperature [C] !Hourly
395,1,Z6,Zone Air Temperature [C] !Hourly
458,1,Z7,Zone Air Temperature [C] !Hourly
521,1,Z8,Zone Air Temperature [C] !Hourly
584,1,HOT WATER LOOP,Plant Supply Side Outlet Temperature [C] !Hourly
647,1,Z1 RADIATOR,Baseboard Total Heating Rate [W] !Hourly
648,1,Z1 RADIATOR,Baseboard Hot Water Mass Flow Rate [kg/s] !Hourly
651,1,Z2 RADIATOR,Baseboard Total Heating Rate [W] !Hourly
652,1,Z2 RADIATOR,Baseboard Hot Water Mass Flow Rate [kg/s] !Hourly
655,1,Z3 RADIATOR,Baseboard Total Heating Rate [W] !Hourly
656,1,Z3 RADIATOR,Baseboard Hot Water Mass Flow Rate [kg/s] !Hourly
659,1,Z4 RADIATOR,Baseboard Total Heating Rate [W] !Hourly
660,1,Z4 RADIATOR,Baseboard Hot Water Mass Flow Rate [kg/s] !Hourly
663,1,Z5 RADIATOR,Baseboard Total Heating Rate [W] !Hourly
664,1,Z5 RADIATOR,Baseboard Hot Water Mass Flow Rate [kg/s] !Hourly
667,1,Z6 RADIATOR,Baseboard Total Heating Rate [W] !Hourly
668,1,Z6 RADIATOR,Baseboard Hot Water Mass Flow Rate [kg/s] !Hourly
671,1,Z7 RADIATOR,Baseboard Total Heating Rate [W] !Hourly
672,1,Z7 RADIATOR,Baseboard Hot Water Mass Flow Rate [kg/s] !Hourly
675,1,Z8 RADIATOR,Baseboard Total Heating Rate [W] !Hourly
676,1,Z8 RADIATOR,Baseboard Hot Water Mass Flow Rate [kg/s] !Hourly
677,1,HEAT PUMP,Heat Pump Load Side Heat Transfer Rate [W] !Hourly
691,1,HEAT PUMP,Heat Pump Load Side Inlet Temperature [C] !Hourly
692,1,HEAT PUMP,Heat Pump Load Side Outlet Temperature [C] !Hourly
693,1,HEAT PUMP,Heat Pump Electricity Rate [W] !Hourly
768,1,SUPPLY PUMP,Pump Electricity Rate [W] !Hourly
769,1,SUPPLY PUMP,Pump Fluid Heat Gain Rate [W] !Hourly
770,1,SUPPLY PUMP,Pump Mass Flow Rate [kg/s] !Hourly
798,1,Baseboard Total Heating Rate All Zones,PythonPlugin:OutputVariable [W] !Hourly
End of Data Dictionary
1,WINTER DESIGN DAY IN (MID) UK,  53.35,  -2.28,   0.00,  69.00
2,1, 1,15, 0, 1, 0.00,60.00,WinterDesignDay
7,-3.0
8,20.998824470930582
143,18.00019240634903
206,18.00019240634903
269,20.998824470930582
332,17.999960985446876
395,20.999146301083968
458,20.999146301083968
521,17.999960985446876
584,49.10631147507959
647,601.635531340498
648,0.029496
651,343.4187689888522
652,0.0030929033203124998
655,343.4187689888522
656,0.0030929033203124998
659,601.635531340498
660,0.029496
663,91.94136684899493
664,0.0007070650634765627
667,272.1833250646478
668,0.0025636171875000006
671,272.1833250646478
672,0.0025636171875000006
675,91.94136684899493
676,0.0007070650634765627
677,2615.8679131152503
691,44.29193024787928
692,49.10631147507959
693,1079.9919000978887
768,1.9685352008761763
769,1.9685352008761763
770,0.12998674
798,1890.1086006587007
2,1, 1,15, 0, 2, 0.00,60.00,WinterDesignDay
7,-3.0
8,20.99891509843016
143,18.000260726553957
206,18.000260726553957
269,20.99891509843016
332,18.000124884570816
395,20.999185266407054
458,20.999185266407054
521,18.000124884570816
584,49.10649774131778
647,601.6375852768635
648,0.029496
651,343.4200874904642
652,0.0030929033203124998
655,343.4200874904642
656,0.0030929033203124998
659,601.6375852768635
660,0.029496
663,91.94164778895812
664,0.0007070650634765627
667,272.1847305317076
668,0.0025636171875000006
671,272.1847305317076
672,0.0025636171875000006
675,91.94164778895812
676,0.0007070650634765627
677,2615.8926134428757
691,44.29207105433219
692,49.10649774131778
693,1080.0065413207142
768,1.968535312814291
769,1.968535312814291
770,0.12998674
798,1890.1153455346555
2,1, 1,15, 0, 3, 0.00,60.00,WinterDesignDay
7,-3.0
8,20.999003383678605
143,18.000330234149637
206,18.000330234149637
269,20.999003383678605
332,17.999961598592122
395,20.999226426599446
458,20.999226426599446
521,17.999961598592122
584,49.10666955342664
647,601.639378241159
648,0.029496
651,343.42123018056463
652,0.0030929033203124998
655,343.42123018056463
656,0.0030929033203124998
659,601.639378241159
660,0.029496
663,91.91286392004228
664,0.0007068400268554689
667,272.1860133184533
668,0.0025636171875000006
671,272.1860133184533
672,0.0025636171875000006
675,91.91286392004228
676,0.0007068400268554689
677,2615.842849705581
691,44.29233445424693
692,49.10666955342664
693,1079.9900942009133
768,1.9685355222121081
769,1.9685355222121081
770,0.12998674
798,1890.1212168434472
2,1, 1,15, 0, 4, 0.00,60.00,WinterDesignDay
7,-3.0
8,20.999089102881037
143,18.00040011716894
206,18.00040011716894
269,20.999089102881037
332,17.999924325264686
395,20.99926076505995
458,20.99926076505995
521,17.999924325264686
584,49.10682729069262
647,601.6409232201546
648,0.029496
651,343.42221109675137
652,0.0030929033203124998
655,343.42221109675137
656,0.0030929033203124998
659,601.6409232201546
660,0.029496
663,91.9135552028086
664,0.0007068400268554689
667,272.18719609976324
668,0.0025636171875000006
671,272.18719609976324
672,0.0025636171875000006
675,91.9135552028086
676,0.0007068400268554689
677,2615.8510621028327
691,44.29247707698401
692,49.10682729069262
693,1079.9972475536147
768,1.9685356355943364
769,1.9685356355943364
770,0.12998674
798,1890.1262686338118
2,1, 1,15, 0, 5, 0.00,60.00,WinterDesignDay
7,-3.0
8,20.99917204447805
143,18.000469725457638
206,18.000469725457638
269,20.99917204447805
332,17.999923529890044
395,20.99928903829254
458,20.99928903829254
521,17.999923529890044
584,49.10697136796877
647,601.6422335389609
648,0.029496
651,343.4230419414949
652,0.0030929033203124998
655,343.4230419414949
656,0.0030929033203124998
659,601.6422335389609
660,0.029496
663,91.91399475259607
664,0.0007068400268554689
667,272.1883201892616
668,0.0025636171875000006
671,272.1883201892616
672,0.0025636171875000006
675,91.91399475259607
676,0.0007068400268554689
677,2615.8579143128763
691,44.29260854309152
692,49.10697136796877
693,1080.003513498962
768,1.9685357401072785
769,1.9685357401072785
770,0.12998674
798,1890.1305509609115
2,1, 1,15, 0, 6, 0.00,60.00,WinterDesignDay
7,-3.0
8,20.99925202014703
143,18.000538533640622
206,18.000538533640622
269,20.99925202014703
332,17.99993285302169
395,20.999316015345684
458,20.999316015345684
521,17.99993285302169
584,49.10710223349831
647,601.6433229956017
648,0.029496
651,343.42373400300767
652,0.0030929033203124998
655,343.42373400300767
656,0.0030929033203124998
659,601.6433229956017
660,0.029496
663,91.91436177487645
664,0.0007068400268554689
667,272.1893332941508
668,0.0025636171875000006
671,272.1893332941508
672,0.0025636171875000006
675,91.91436177487645
676,0.0007068400268554689
677,2615.863701303988
691,44.29272875793751
692,49.10710223349831
693,1080.009024504895
768,1.9685358356757012
769,1.9685358356757012
770,0.12998674
798,1890.1341139972187
2,1, 1,15, 0, 7, 0.00,60.00,WinterDesignDay
7,-3.0
8,20.999322368762677
143,18.000140622902748
206,18.000140622902748
269,20.999322368762677
332,17.99994708258589
395,20.999343016796058
458,20.999343016796058
521,17.99994708258589
584,49.10722036515028
647,601.6442053605281
648,0.029496
651,343.2954856427265
652,0.00309110302734375
655,343.2954856427265
656,0.00309110302734375
659,601.6442053605281
660,0.029496
663,91.9146742732535
664,0.0007068400268554689
667,272.1902243018766
668,0.0025636171875000006
671,272.1902243018766
672,0.0025636171875000006
675,91.9146742732535
676,0.0007068400268554689
677,2615.645020709994
691,44.293249360884445
692,49.10722036515028
693,1079.9215557938796
768,1.9685362495446885
769,1.9685362495446885
770,0.12998674
798,1889.8793820065093
2,1, 1,15, 0, 8, 0.00,60.00,WinterDesignDay
7,-3.0
8,20.999379908073507
143,18.000409970142194
206,18.000409970142194
269,20.999379908073507
332,17.999964292847476
395,20.999370391645886
458,20.999370391645886
521,17.999964292847476
584,49.107327642732145
647,601.6453754645725
648,0.029496
651,343.4296044286277
652,0.0030929033203124998
655,343.4296044286277
656,0.0030929033203124998
659,601.6453754645725
660,0.029496
663,91.91494434564804
664,0.0007068400268554689
667,272.19100541056565
668,0.0025636171875000006
671,272.19100541056565
672,0.0025636171875000006
675,91.91494434564804
676,0.0007068400268554689
677,2615.848487462026
691,44.29298216752821
692,49.107327642732145
693,1080.0081201461735
768,1.968536037131229
769,1.968536037131229
770,0.12998674
798,1890.1499597864004
2,1, 1,15, 0, 9, 0.00,60.00,WinterDesignDay
7,-3.0
8,20.999427772442143
143,18.000239310674708
206,18.000239310674708
269,20.999427772442143
332,17.999983557175774
395,20.999398235600644
458,20.999398235600644
521,17.999983557175774
584,49.10742606829507
647,601.6463983832431
648,0.029496
651,343.29542967837045
652,0.00309110302734375
655,343.29542967837045
656,0.00309110302734375
659,601.6463983832431
660,0.029496
663,91.91518155186131
664,0.0007068400268554689
667,272.1916959167234
668,0.0025636171875000006
671,272.1916959167234
672,0.0025636171875000006
675,91.91518155186131
676,0.0007068400268554689
677,2615.6524367695383
691,44.29344141512223
692,49.10742606829507
693,1079.9295241787174
768,1.9685364022241512
769,1.9685364022241512
770,0.12998674
798,1889.883656123227
2,1, 1,15, 0,10, 0.00,60.00,WinterDesignDay
7,-3.0
8,20.999474784832532
143,18.000612965123565
206,18.000612965123565
269,20.999474784832532
332,18.00000429865664
395,20.99942639424935
458,20.99942639424935
521,18.00000429865664
584,49.10751650703337
647,601.6472256320664
648,0.029496
651,343.4293765772565
652,0.0030929033203124998
655,343.4293765772565
656,0.0030929033203124998
659,601.6472256320664
660,0.029496
663,91.9153900709037
664,0.0007068400268554689
667,272.19230458009565
668,0.0025636171875000006
671,272.19230458009565
672,0.0025636171875000006
675,91.9153900709037
676,0.0007068400268554689
677,2615.8897969759446
691,44.293095003622014
692,49.10751650703337
693,1080.0296809460658
768,1.9685361268336106
769,1.9685361268336106
770,0.12998674
798,1890.1532044186456
2,1, 1,15, 0,11, 0.00,60.00,WinterDesignDay
7,-3.0
8,20.999523943594724
143,18.00000020493466
206,18.00000020493466
269,20.999523943594724
332,18.000026095555803
395,20.99945464805586
458,20.99945464805586
521,18.000026095555803
584,49.1075992692771
647,601.6480394731561
648,0.029496
651,343.3013698033386
652,0.00309110302734375
655,343.3013698033386
656,0.00309110302734375
659,601.6480394731561
660,0.029496
663,91.91557260312744
664,0.0007068400268554689
667,272.1928376831684
668,0.0025636171875000006
671,272.1928376831684
672,0.0025636171875000006
675,91.91557260312744
676,0.0007068400268554689
677,2615.635189274173
691,44.293646359304105
692,49.1075992692771
693,1079.926534472218
768,1.9685365651508664
769,1.9685365651508664
770,0.12998674
798,1889.8988185529893
2,1, 1,15, 0,12, 0.00,60.00,WinterDesignDay
7,-3.0
8,20.99955009938336
143,18.000575740211158
206,18.000575740211158
269,20.99955009938336
332,18.00004861111403
395,20.999482784192132
458,20.999482784192132
521,18.00004861111403
584,49.10767514673309
647,601.6489655706293
648,0.029496
651,343.43188892755006
652,0.0030929033203124998
655,343.43188892755006
656,0.0030929033203124998
659,601.6489655706293
660,0.029496
663,91.9157319649259
664,0.0007068400268554689
667,272.1933033434693
668,0.0025636171875000006
671,272.1933033434693
672,0.0025636171875000006
675,91.9157319649259
676,0.0007068400268554689
677,2615.900425854886
691,44.293234081372525
692,49.10767514673309
693,1080.0378536728742
768,1.968536237397712
769,1.968536237397712
770,0.12998674
798,1890.161708996359
2,1, 1,15, 0,13, 0.00,60.00,WinterDesignDay
7,-3.0
8,20.99958928046448
143,17.999943821132263
206,17.999943821132263
269,20.99958928046448
332,18.000071623695504
395,20.999510795214665
458,20.999510795214665
521,18.000071623695504
584,49.10774607640087
647,601.6497475909825
648,0.029496
651,343.3036321181526
652,0.00309110302734375
655,343.3036321181526
656,0.00309110302734375
659,601.6497475909825
660,0.029496
663,91.91587519669724
664,0.0007068400268554689
667,272.1937225495187
668,0.0025636171875000006
671,272.1937225495187
672,0.0025636171875000006
675,91.91587519669724
676,0.0007068400268554689
677,2615.6450218453665
691,44.29377507004545
692,49.10774607640087
693,1079.934095821809
768,1.968536667473444
769,1.968536667473444
770,0.12998674
798,1889.9067594182702
2,1, 1,15, 0,14, 0.00,60.00,WinterDesignDay
7,-3.0
8,20.999608065894236
143,18.0005767261608
206,18.0005767261608
269,20.999608065894236
332,17.999829698055372
395,20.999538479436403
458,20.999538479436403
521,17.999829698055372
584,49.10781167946318
647,601.6506330744
648,0.029496
651,343.43342893536607
652,0.0030929033203124998
655,343.43342893536607
656,0.0030929033203124998
659,601.6506330744
660,0.029496
663,91.88719872412487
664,0.0007066149902343751
667,272.194091735963
668,0.0025636171875000006
671,272.194091735963
672,0.0025636171875000006
675,91.88719872412487
676,0.0007066149902343751
677,2615.8508582953737
691,44.293461840852565
692,49.10781167946318
693,1080.0206454283955
768,1.9685364184620588
769,1.9685364184620588
770,0.12998674
798,1890.1681240195321
2,1, 1,15, 0,15, 0.00,60.00,WinterDesignDay
7,-3.0
8,20.999643627764648
143,17.999958881482062
206,17.999958881482062
269,20.999643627764648
332,18.000056634455355
395,20.999546421741556
458,20.999546421741556
521,18.000056634455355
584,49.1078734091746
647,601.6513054000111
648,0.029496
651,343.30490511081655
652,0.00309110302734375
655,343.30490511081655
656,0.00309110302734375
659,601.6513054000111
660,0.029496
663,91.91630691269559
664,0.0007068400268554688
667,272.1945831459647
668,0.0025636171875000006
671,272.1945831459647
672,0.0025636171875000006
675,91.91630691269559
676,0.0007068400268554688
677,2615.652908038688
691,44.29388788865319
692,49.1078734091746
693,1079.9403890522897
768,1.9685367571620884
769,1.9685367571620884
770,0.12998674
798,1889.912421021655
2,1, 1,15, 0,16, 0.00,60.00,WinterDesignDay
7,-3.0
8,20.999660091679466
143,18.00059982082874
206,18.00059982082874
269,20.999660091679466
332,18.000003435121545
395,20.999557672114836
458,20.999557672114836
521,18.000003435121545
584,49.10793036403632
647,601.652059888072
648,0.029496
651,343.4345084805114
652,0.0030929033203124998
655,343.4345084805114
656,0.0030929033203124998
659,601.652059888072
660,0.029496
663,91.91689576475004
664,0.0007068400268554689
667,272.19498235992944
668,0.0025636171875000006
671,272.19498235992944
672,0.0025636171875000006
675,91.91689576475004
676,0.0007068400268554689
677,2615.9168431561147
691,44.29345908340899
692,49.10793036403632
693,1080.0507202034105
768,1.9685364162699726
769,1.9685364162699726
770,0.12998674
798,1890.173136737167
2,1, 1,15, 0,17, 0.00,60.00,WinterDesignDay
7,-3.0
8,20.99969395818809
143,17.999986963338408
206,17.999986963338408
269,20.99969395818809
332,17.999811579891848
395,20.99957057181125
458,20.99957057181125
521,17.999811579891848
584,49.107983803984126
647,601.6525931593237
648,0.029496
651,343.3058308235823
652,0.00309110302734375
655,343.3058308235823
656,0.00309110302734375
659,601.6525931593237
660,0.029496
663,91.88778557529648
664,0.0007066149902343751
667,272.19543963219894
668,0.0025636171875000006
671,272.19543963219894
672,0.0025636171875000006
675,91.88778557529648
676,0.0007066149902343751
677,2615.6015610483573
691,44.294092785170946
692,49.107983803984126
693,1079.9218222891784
768,1.9685369200509628
769,1.9685369200509628
770,0.12998674
798,1889.916847965812
2,1, 1,15, 0,18, 0.00,60.00,WinterDesignDay
7,-3.0
8,20.999708962305604
143,18.000295835498612
206,18.000295835498612
269,20.999708962305604
332,18.00005769346145
395,20.999574511047136
458,20.999574511047136
521,18.00005769346145
584,49.10803273524637
647,601.6532075421239
648,0.029496
651,343.44041365209154
652,0.0030929033203124998
655,343.44041365209154
656,0.0030929033203124998
659,601.6532075421239
660,0.029496
663,91.91678650407937
664,0.0007068400268554688
667,272.19585738822514
668,0.0025636171875000006
671,272.19585738822514
672,0.0025636171875000006
675,91.91678650407937
676,0.0007068400268554688
677,2615.8971837668923
691,44.29359763679548
692,49.10803273524637
693,1080.0450453747558
768,1.9685365264174488
769,1.9685365264174488
770,0.12998674
798,1890.187242388431
2,1, 1,15, 0,19, 0.00,60.00,WinterDesignDay
7,-3.0
8,20.999724174574162
143,18.000270552786148
206,18.000270552786148
269,20.999724174574162
332,18.000013144371913
395,20.99958562335623
458,20.99958562335623
521,18.000013144371913
584,49.10807921102429
647,601.6539631206232
648,0.029496
651,343.30239408006014
652,0.00309110302734375
655,343.30239408006014
656,0.00309110302734375
659,601.6539631206232
660,0.029496
663,91.91731429261336
664,0.0007068400268554689
667,272.1961616594112
668,0.0025636171875000006
671,272.1961616594112
672,0.0025636171875000006
675,91.91731429261336
676,0.0007068400268554689
677,2615.6927812585886
691,44.294020305726676
692,49.10807921102429
693,1079.9617607710993
768,1.968536862431111
769,1.968536862431111
770,0.12998674
798,1889.9127144013667
2,1, 1,15, 0,20, 0.00,60.00,WinterDesignDay
7,-3.0
8,20.999751515012544
143,18.00035724770524
206,18.00035724770524
269,20.999751515012544
332,17.99982635783275
395,20.999599590195913
458,20.999599590195913
521,17.99982635783275
584,49.10812259982595
647,601.6542356792708
648,0.029496
651,343.44074874714494
652,0.0030929033203124998
655,343.44074874714494
656,0.0030929033203124998
659,601.6542356792708
660,0.029496
663,91.88815727664903
664,0.0007066149902343751
667,272.1965122709306
668,0.0025636171875000006
671,272.1965122709306
672,0.0025636171875000006
675,91.88815727664903
676,0.0007066149902343751
677,2615.843588185128
691,44.29378614150954
692,49.10812259982595
693,1080.025060646421
768,1.968536676275052
769,1.968536676275052
770,0.12998674
798,1890.1899688528313
2,1, 1,15, 0,21, 0.00,60.00,WinterDesignDay
7,-3.0
8,20.99976064739505
143,18.00014702905275
206,18.00014702905275
269,20.99976064739505
332,18.00007595272999
395,20.999604801083468
458,20.999604801083468
521,18.00007595272999
584,49.10816221757695
647,601.6548078595365
648,0.029496
651,343.3064737247739
652,0.00309110302734375
655,343.3064737247739
656,0.00309110302734375
659,601.6548078595365
660,0.029496
663,91.9171195988578
664,0.0007068400268554688
667,272.1968274897209
668,0.0025636171875000006
671,272.1968274897209
672,0.0025636171875000006
675,91.9171195988578
676,0.0007068400268554688
677,2615.7035800330177
691,44.29408343764552
692,49.10816221757695
693,1079.9681993326576
768,1.9685369126196421
769,1.9685369126196421
770,0.12998674
798,1889.9225631686209
2,1, 1,15, 0,22, 0.00,60.00,WinterDesignDay
7,-3.0
8,20.99977149057723
143,17.999933010980577
206,17.999933010980577
269,20.99977149057723
332,18.000034016483102
395,20.99961703849877
458,20.99961703849877
521,18.000034016483102
584,49.108200023391916
647,601.6554888907579
648,0.029496
651,343.3090139858888
652,0.00309110302734375
655,343.3090139858888
656,0.00309110302734375
659,601.6554888907579
660,0.029496
663,91.91761323525978
664,0.0007068400268554689
667,272.1970355800808
668,0.0025636171875000006
671,272.1970355800808
672,0.0025636171875000006
675,91.91761323525978
676,0.0007068400268554689
677,2615.6763055026595
691,44.29417144094419
692,49.108200023391916
693,1079.9578400328064
768,1.9685369825807897
769,1.9685369825807897
770,0.12998674
798,1889.9290057532935
2,1, 1,15, 0,23, 0.00,60.00,WinterDesignDay
7,-3.0
8,20.99977836855043
143,18.000278952176444
206,18.000278952176444
269,20.99977836855043
332,17.99984928591912
395,20.999631951930855
458,20.999631951930855
521,17.99984928591912
584,49.10823665704258
647,601.6560671068003
648,0.029496
651,343.44293537461886
652,0.0030929033203124998
655,343.44293537461886
656,0.0030929033203124998
659,601.6560671068003
660,0.029496
663,91.88842930301783
664,0.0007066149902343751
667,272.1973098226361
668,0.0025636171875000006
671,272.1973098226361
672,0.0025636171875000006
675,91.88842930301783
676,0.0007066149902343751
677,2615.853563747603
691,44.29388183917503
692,49.10823665704258
693,1080.0319001251817
768,1.9685367523528723
769,1.9685367523528723
770,0.12998674
798,1890.1980049628382
2,1, 1,15, 0,24, 0.00,60.00,WinterDesignDay
7,-3.0
8,20.99978205109875
143,18.000104887929602
206,18.000104887929602
269,20.99978205109875
332,18.00000600468915
395,20.999627873719806
458,20.999627873719806
521,18.00000600468915
584,49.108272105480125
647,601.6566880976959
648,0.029496
651,343.3082306262362
652,0.00309110302734375
655,343.3082306262362
656,0.00309110302734375
659,601.6566880976959
660,0.029496
663,91.91791273298948
664,0.0007068400268554689
667,272.1976061839861
668,0.0025636171875000006
671,272.1976061839861
672,0.0025636171875000006
675,91.91791273298948
676,0.0007068400268554689
677,2615.713898307036
691,44.29417433525317
692,49.108272105480125
693,1079.9750807251296
768,1.968536984881616
769,1.968536984881616
770,0.12998674
798,1889.9298374478642
End of Data
 Number of Records Written=         816
