Program Version,EnergyPlus, Version 24.2.0-94a887817b, YMD=2026.05.08 12:15
1,5,Environment Title[],Latitude[deg],Longitude[deg],Time Zone[],Elevation[m]
2,8,Day of Simulation[],Month[],Day of Month[],DST Indicator[1=yes 0=no],Hour[],StartMinute[],EndMinute[],DayType
3,5,Cumulative Day of Simulation[],Month[],Day of Month[],DST Indicator[1=yes 0=no],DayType  ! When Daily Report Variables Requested
4,2,Cumulative Days of Simulation[],Month[]  ! When Monthly Report Variables Requested
5,1,Cumulative Days of Simulation[] ! When Run Period Report Variables Requested
6,1,Calendar Year of Simulation[] ! When Annual Report Variables Requested
7,1,Environment,Site Outdoor Air Drybulb Temperature [C] !Hourly
8,1,Z1,Zone Air Temperature [C] !Hourly
143,1,Z2,Zone Air Temperature [C] !Hourly
206,1,Z3,Zone Air Temperature [C] !Hourly
269,1,Z4,Zone Air Temperature [C] !Hourly
332,1,Z5,Zone Air Temperature [C] !Hourly
395,1,Z6,Zone Air Temperature [C] !Hourly
458,1,Z7,Zone Air Temperature [C] !Hourly
521,1,Z8,Zone Air Temperature [C] !Hourly
584,1,HOT WATER LOOP,Plant Supply Side Outlet Temperature [C] !Hourly
647,1,Z1 RADIATOR,Baseboard Total Heating Rate [W] !Hourly
648,1,Z1 RADIATOR,Baseboard Hot Water Mass Flow Rate [kg/s] !Hourly
651,1,Z2 RADIATOR,Baseboard Total Heating Rate [W] !Hourly
652,1,Z2 RADIATOR,Baseboard Hot Water Mass Flow Rate [kg/s] !Hourly
655,1,Z3 RADIATOR,Baseboard Total Heating Rate [W] !Hourly
656,1,Z3 RADIATOR,Baseboard Hot Water Mass Flow Rate [kg/s] !Hourly
659,1,Z4 RADIATOR,Baseboard Total Heating Rate [W] !Hourly
660,1,Z4 RADIATOR,Baseboard Hot Water Mass Flow Rate [kg/s] !Hourly
663,1,Z5 RADIATOR,Baseboard Total Heating Rate [W] !Hourly
664,1,Z5 RADIATOR,Baseboard Hot Water Mass Flow Rate [kg/s] !Hourly
667,1,Z6 RADIATOR,Baseboard Total Heating Rate [W] !Hourly
668,1,Z6 RADIATOR,Baseboard Hot Water Mass Flow Rate [kg/s] !Hourly
671,1,Z7 RADIATOR,Baseboard Total Heating Rate [W] !Hourly
672,1,Z7 RADIATOR,Baseboard Hot Water Mass Flow Rate [kg/s] !Hourly
675,1,Z8 RADIATOR,Baseboard Total Heating Rate [W] !Hourly
676,1,Z8 RADIATOR,Baseboard Hot Water Mass Flow Rate [kg/s] !Hourly
677,1,HEAT PUMP,Heat Pump Load Side Heat Transfer Rate [W] !Hourly
691,1,HEAT PUMP,Heat Pump Load Side Inlet Temperature [C] !Hourly
692,1,HEAT PUMP,Heat Pump Load Side Outlet Temperature [C] !Hourly
693,1,HEAT PUMP,Heat Pump Electricity Rate [W] !Hourly
768,1,SUPPLY PUMP,Pump Electricity Rate [W] !Hourly
769,1,SUPPLY PUMP,Pump Fluid Heat Gain Rate [W] !Hourly
770,1,SUPPLY PUMP,Pump Mass Flow Rate [kg/s] !Hourly
798,1,Baseboard Total Heating Rate All Zones,PythonPlugin:OutputVariable [W] !Hourly
End of Data Dictionary
1,WINTER DESIGN DAY IN (MID) UK,  53.35,  -2.28,   0.00,  69.00
2,1, 1,15, 0, 1, 0.00,60.00,WinterDesignDay
7,-3.0
8,20.991365605190154
143,17.999956527957963
206,17.999956527958723
269,20.991365605189294
332,17.999668568779075
395,19.252262820047026
458,19.25226282004914
521,17.99966856877684
584,40.83508021697383
647,424.7428256034813
648,0.029496
651,116.876745293135
652,0.0012327506103515626
655,116.87674529313114
656,0.0012327506103515626
659,424.7428256034998
660,0.029496
663,287.4230178270044
664,0.003838224609375001
667,461.96752510962546
668,0.029496
671,461.9675251095786
672,0.029496
675,287.42301782703225
676,0.003838224609375001
677,2580.102843898035
691,36.086522908850455
692,40.83508021697383
693,870.6157634637212
768,1.9623427232566257
769,1.9623427232566257
770,0.12998674
798,1083.2391417932472
2,1, 1,15, 0, 2, 0.00,60.00,WinterDesignDay
7,-3.0
8,20.9917222723006
143,17.99978614554119
206,17.99978614554191
269,20.991722272299736
332,17.99978057857132
395,19.252683906169246
458,19.25268390617095
521,17.999780578569055
584,40.83645459284488
647,424.76450657697245
648,0.029496
651,116.84353589672233
652,0.001232300537109375
655,116.8435358967186
656,0.001232300537109375
659,424.7645065769908
660,0.029496
663,287.4393881062279
664,0.003838224609375001
667,461.9878453814121
668,0.029496
671,461.9878453813733
672,0.029496
675,287.4393881062562
676,0.003838224609375001
677,2580.1515822998954
691,36.08780758399702
692,40.83645459284488
693,870.6645475576612
768,1.9623436366447902
769,1.9623436366447902
770,0.12998674
798,1083.2160849474042
2,1, 1,15, 0, 3, 0.00,60.00,WinterDesignDay
7,-3.0
8,20.992075222094186
143,17.99990643041012
206,17.999906430410768
269,20.99207522209332
332,17.999986725637328
395,19.25309323616313
458,19.253093236164368
521,17.999986725635075
584,40.83777203504198
647,424.7852404338946
648,0.029496
651,116.84977629661927
652,0.001232300537109375
655,116.84977629661583
656,0.001232300537109375
659,424.7852404339135
660,0.029496
663,287.45362295799936
664,0.003838224609375001
667,462.00728381629153
668,0.029496
671,462.0072838162628
672,0.029496
675,287.45362295802795
676,0.003838224609375001
677,2580.271239418582
691,36.08890480292405
692,40.83777203504198
693,870.7359250551624
768,1.962344416754661
769,1.962344416754661
770,0.12998674
798,1083.270033461043
2,1, 1,15, 0, 4, 0.00,60.00,WinterDesignDay
7,-3.0
8,20.992438807534835
143,17.999801176517575
206,17.999801176518126
269,20.992438807533965
332,18.00024280311035
395,19.25349913303742
458,19.253499133038176
521,18.00024280310811
584,40.839032685522966
647,424.80452972166086
648,0.029496
651,116.81517647538811
652,0.0012318504638671873
655,116.81517647538513
656,0.0012318504638671873
659,424.8045297216793
660,0.029496
663,287.4664208762106
664,0.003838224609375001
667,462.0256055467832
668,0.029496
671,462.0256055467644
672,0.029496
675,287.46642087623877
676,0.003838224609375001
677,2580.301014358589
691,36.090110654035584
692,40.839032685522966
693,870.7756365532604
768,1.9623452741013079
769,1.9623452741013079
770,0.12998674
798,1083.2394123941135
2,1, 1,15, 0, 5, 0.00,60.00,WinterDesignDay
7,-3.0
8,20.992789885834828
143,17.99963081374389
206,17.99963081374435
269,20.992789885833968
332,17.999657574733572
395,19.253892752996002
458,19.253892752996368
521,17.99965757473134
584,40.84023518698118
647,424.8225914266751
648,0.029496
651,116.78121280674686
652,0.001231400390625
655,116.78121280674443
656,0.001231400390625
659,424.8225914266935
660,0.029496
663,287.33784438605863
664,0.003834624023437501
667,462.04282036953725
668,0.029496
671,462.0428203695276
672,0.029496
675,287.3378443860868
676,0.003834624023437501
677,2580.023704294569
691,36.09182353155661
692,40.84023518698118
693,870.7103455427955
768,1.9623464919394171
769,1.9623464919394171
770,0.12998674
798,1083.20760846686
2,1, 1,15, 0, 6, 0.00,60.00,WinterDesignDay
7,-3.0
8,20.99306822444518
143,17.999726631762428
206,17.999726631762762
269,20.99306822444433
332,17.999587634427684
395,19.25422958169314
458,19.25422958169323
521,17.99958763442548
584,40.84138358429719
647,424.8409342188548
648,0.029496
651,116.78678309080092
652,0.001231400390625
655,116.78678309079912
656,0.001231400390625
659,424.8409342188732
660,0.029496
663,287.27612675088363
664,0.003832823730468751
667,462.05993833039634
668,0.029496
671,462.0599383303932
672,0.029496
675,287.27612675091143
676,0.003832823730468751
677,2580.021441586152
691,36.09297609328049
692,40.84138358429719
693,870.7366013696578
768,1.962347311399747
769,1.962347311399747
770,0.12998674
798,1083.2554346193278
2,1, 1,15, 0, 7, 0.00,60.00,WinterDesignDay
7,-3.0
8,20.993350763891947
143,17.999893505519395
206,17.999893505519633
269,20.993350763891094
332,17.99923843873749
395,19.254554484738783
458,19.254554484738883
521,17.999238438735333
584,40.84248673618568
647,424.8585790381188
648,0.029496
651,116.79164223956032
652,0.001231400390625
655,116.79164223955905
656,0.001231400390625
659,424.8585790381368
660,0.029496
663,287.21885360103516
664,0.003831023437500001
667,462.07658629322935
668,0.029496
671,462.07658629322765
672,0.029496
675,287.21885360106245
676,0.003831023437500001
677,2579.963148773383
691,36.09418653033505
692,40.84248673618568
693,870.7428820040398
768,1.9623481720096234
769,1.9623481720096234
770,0.12998674
798,1083.300442555375
2,1, 1,15, 0, 8, 0.00,60.00,WinterDesignDay
7,-3.0
8,20.993613518579867
143,18.000090817216822
206,18.000090817216993
269,20.99361351857904
332,17.99929084099586
395,19.25485174934324
458,19.254851749343512
521,17.999290840993954
584,40.84354553454826
647,424.87558023927545
648,0.029496
651,116.79608084108366
652,0.001231400390625
655,116.79608084108271
656,0.001231400390625
659,424.8755802392934
660,0.029496
663,287.23292030735297
664,0.003831023437500001
667,462.09279705842
668,0.029496
671,462.09279705841584
672,0.029496
675,287.2329203073781
676,0.003831023437500001
677,2580.0658447887413
691,36.09505632153639
692,40.84354553454826
693,870.8024537402504
768,1.9623487904238421
769,1.9623487904238421
770,0.12998674
798,1083.3433221607352
2,1, 1,15, 0, 9, 0.00,60.00,WinterDesignDay
7,-3.0
8,20.99388907481628
143,18.000301153064523
206,18.000301153064665
269,20.99388907481552
332,17.999418657723254
395,19.25514728396552
458,19.25514728396618
521,17.999418657721872
584,40.84456189979901
647,424.8915450048936
648,0.029496
651,116.8002238181441
652,0.001231400390625
655,116.80022381814331
656,0.001231400390625
659,424.8915450049103
660,0.029496
663,287.24434141411047
664,0.003831023437500001
667,462.1082634098258
668,0.029496
671,462.1082634098142
672,0.029496
675,287.24434141412985
676,0.003831023437500001
677,2580.158588426705
691,36.09590199650598
692,40.84456189979901
693,870.8576699166002
768,1.962349391691997
769,1.962349391691997
770,0.12998674
798,1083.3835376460913
2,1, 1,15, 0,10, 0.00,60.00,WinterDesignDay
7,-3.0
8,20.99417950357453
143,18.000213342833824
206,18.000213342833973
269,20.99417950357391
332,17.999594137178473
395,19.255446486505512
458,19.25544648650648
521,17.999594137177844
584,40.84553387087721
647,424.9062411256462
648,0.029496
651,116.76377349647366
652,0.0012309503173828125
655,116.76377349647292
656,0.0012309503173828125
659,424.90624112566036
660,0.029496
663,287.25449949763856
664,0.003831023437500001
667,462.12271834301475
668,0.029496
671,462.1227183429952
672,0.029496
675,287.25449949764914
676,0.003831023437500001
677,2580.1627322066606
691,36.096866341153074
692,40.84553387087721
693,870.881938017634
768,1.9623500773338165
769,1.9623500773338165
770,0.12998674
798,1083.340029244253
2,1, 1,15, 0,11, 0.00,60.00,WinterDesignDay
7,-3.0
8,20.99445986083937
143,18.000234246186427
206,18.000234246186622
269,20.994459860838962
332,17.9997998068582
395,19.255746480879424
458,19.25574648088054
521,17.999799806858405
584,40.84645955000657
647,424.91995827417117
648,0.029496
651,116.76932570145904
652,0.0012309503173828125
655,116.76932570145814
656,0.0012309503173828125
659,424.9199582741812
660,0.029496
663,287.26364814784404
664,0.003831023437500001
667,462.13613234442494
668,0.029496
671,462.1361323444017
672,0.029496
675,287.26364814784404
676,0.003831023437500001
677,2580.2451954803364
691,36.097640250525735
692,40.84645955000657
693,870.9315530923518
768,1.9623506275778966
769,1.9623506275778966
770,0.12998674
798,1083.3785679512696
2,1, 1,15, 0,12, 0.00,60.00,WinterDesignDay
7,-3.0
8,20.99473846093572
143,18.000059760170345
206,18.000059760170576
269,20.994738460935572
332,18.00002198217657
395,19.256044666946398
458,19.256044666947552
521,18.000021982177323
584,40.84734033691561
647,424.9329214667066
648,0.029496
651,116.73263003001065
652,0.0012305002441406249
655,116.73263003000949
656,0.0012305002441406249
659,424.93292146671126
660,0.029496
663,287.271990635223
664,0.003831023437500001
667,462.14862616895357
668,0.029496
671,462.14862616892856
672,0.029496
675,287.2719906352147
676,0.003831023437500001
677,2580.2378609324114
691,36.098534536323484
692,40.84734033691561
693,870.9498021822565
768,1.962351263409159
769,1.962351263409159
770,0.12998674
798,1083.331102993438
2,1, 1,15, 0,13, 0.00,60.00,WinterDesignDay
7,-3.0
8,20.995010343889643
143,18.00009315411913
206,18.000093154119398
269,20.995010343889696
332,18.00025460122293
395,19.25633975939246
458,19.256339759393363
521,18.00025460122376
584,40.84817675544006
647,424.94498799265665
648,0.029496
651,116.7371953721473
652,0.0012305002441406249
655,116.73719537214596
656,0.0012305002441406249
659,424.94498799265637
660,0.029496
663,287.27962606247087
664,0.003831023437500001
667,462.16022226995267
668,0.029496
671,462.16022226993186
672,0.029496
675,287.2796260624601
676,0.003831023437500001
677,2580.3083027895627
691,36.099241309940034
692,40.84817675544006
693,870.9932608429176
768,1.9623517659208014
769,1.9623517659208014
770,0.12998674
798,1083.3643667296062
2,1, 1,15, 0,14, 0.00,60.00,WinterDesignDay
7,-3.0
8,20.995283952445646
143,18.00023300263853
206,18.000233002638797
269,20.995283952445806
332,18.00049295533893
395,19.256631433813244
458,19.25663143381378
521,18.000492955339485
584,40.848969639007414
647,424.95615741932704
648,0.029496
651,116.74071583979784
652,0.0012305002441406249
655,116.74071583979641
656,0.0012305002441406249
659,424.956157419324
660,0.029496
663,287.2866315864819
664,0.003831023437500001
667,462.1709648934393
668,0.029496
671,462.1709648934258
672,0.029496
675,287.2866315864739
676,0.003831023437500001
677,2580.3718491125733
691,36.09991723950408
692,40.848969639007414
693,871.0333684919393
768,1.9623522465027554
769,1.9623522465027554
770,0.12998674
798,1083.3937465182453
2,1, 1,15, 0,15, 0.00,60.00,WinterDesignDay
7,-3.0
8,20.995556331738104
143,17.99987090846309
206,17.999870908463322
269,20.99555633173827
332,18.00073585877414
395,19.256919774518764
458,19.256919774518856
521,18.0007358587744
584,40.84971863082044
647,424.96632583319774
648,0.029496
651,116.66288304347779
652,0.0012296000976562498
655,116.6628830434766
656,0.0012296000976562498
659,424.9663258331943
660,0.029496
663,287.293026727074
664,0.003831023437500001
667,462.18083036299845
668,0.029496
671,462.1808303629939
672,0.029496
675,287.2930267270699
676,0.003831023437500001
677,2580.278170162956
691,36.10083864299514
692,40.84971863082044
693,871.0193700075146
768,1.9623529016156234
769,1.9623529016156234
770,0.12998674
798,1083.2584177533463
2,1, 1,15, 0,16, 0.00,60.00,WinterDesignDay
7,-3.0
8,20.99580169608133
143,18.000027521249496
206,18.000027521249663
269,20.995801696081458
332,18.000227062267054
395,19.25719196298838
458,19.25719196298806
521,18.000227062267115
584,40.850424497817706
647,424.9760023453238
648,0.029496
651,116.70806662000138
652,0.0012300501708984372
655,116.70806662000037
656,0.0012300501708984372
659,424.97600234532115
660,0.029496
663,287.15506243090044
664,0.0038274228515625007
667,462.1899860038248
668,0.029496
671,462.1899860038301
672,0.029496
675,287.1550624308992
676,0.0038274228515625007
677,2580.117516531637
691,36.10184018540585
692,40.850424497817706
693,870.9817466283494
768,1.9623536137072903
769,1.9623536137072903
770,0.12998674
798,1083.3681379306468
2,1, 1,15, 0,17, 0.00,60.00,WinterDesignDay
7,-3.0
8,20.995996538168857
143,17.999934737491735
206,17.999934737491813
269,20.99599653816893
332,18.000273184707986
395,19.257420951261246
458,19.257420951260972
521,18.000273184708057
584,40.851092470409434
647,424.98598946618796
648,0.029496
651,116.67013455821873
652,0.0012296000976562498
655,116.67013455821808
656,0.0012296000976562498
659,424.98598946618654
660,0.029496
663,287.1641418309887
664,0.0038274228515625007
667,462.1992273369318
668,0.029496
671,462.1992273369388
672,0.029496
675,287.1641418309881
676,0.0038274228515625007
677,2580.097667824962
691,36.10254468860384
692,40.851092470409434
693,870.9907626418877
768,1.962354114605911
769,1.962354114605911
770,0.12998674
798,1083.3122480488114
2,1, 1,15, 0,18, 0.00,60.00,WinterDesignDay
7,-3.0
8,20.996169669692925
143,17.99999533934593
206,17.999995339345965
269,20.996169669692993
332,17.999974824648845
395,19.257628786383588
458,19.257628786384043
521,17.9999748246492
584,40.8517293214767
647,424.9957281966173
648,0.029496
651,116.67345397863625
652,0.0012296000976562498
655,116.67345397863605
656,0.0012296000976562498
659,424.99572819661614
660,0.029496
663,287.09992170621115
664,0.003825622558593751
667,462.2082636002562
668,0.029496
671,462.2082636002516
672,0.029496
675,287.09992170620774
676,0.003825622558593751
677,2580.012434729827
691,36.10333840715326
692,40.8517293214767
693,870.9769735519798
768,1.9623546789365829
769,1.9623546789365829
770,0.12998674
798,1083.3383643505058
2,1, 1,15, 0,19, 0.00,60.00,WinterDesignDay
7,-3.0
8,20.996328313925137
143,18.000100680126543
206,18.000100680126614
269,20.996328313925265
332,17.999664450069954
395,19.257816586398427
458,19.25781658639969
521,17.999664450070693
584,40.85233902423155
647,425.0054328941584
648,0.029496
651,116.67606482845898
652,0.0012296000976562498
655,116.67606482845864
656,0.0012296000976562498
659,425.00543289415623
660,0.029496
663,287.0341320329269
664,0.003823822265625001
667,462.2172795311552
668,0.029496
671,462.21727953113134
672,0.029496
675,287.0341320329188
676,0.003823822265625001
677,2579.9220339755493
691,36.1041144882226
692,40.85233902423155
693,870.9607997682722
768,1.9623552307273904
769,1.9623552307273904
770,0.12998674
798,1083.3629954452322
2,1, 1,15, 0,20, 0.00,60.00,WinterDesignDay
7,-3.0
8,20.99646591685996
143,18.000060381441145
206,18.0000603814413
269,20.99646591686018
332,17.999649642693655
395,19.2579801026453
458,19.257980102646755
521,17.999649642694862
584,40.85292392372947
647,425.0149063934062
648,0.029496
651,116.67934296995719
652,0.0012296000976562498
655,116.6793429699564
656,0.0012296000976562498
659,425.01490639340227
660,0.029496
663,287.0430121012973
664,0.003823822265625001
667,462.2261814752658
668,0.029496
671,462.22618147523445
672,0.029496
675,287.0430121012837
676,0.003823822265625001
677,2579.9721686014946
691,36.104607117311616
692,40.85292392372947
693,870.991486009929
768,1.9623555809851294
769,1.9623555809851294
770,0.12998674
798,1083.388498726722
2,1, 1,15, 0,21, 0.00,60.00,WinterDesignDay
7,-3.0
8,20.9965932533335
143,17.99980809866681
206,17.99980809866704
269,20.99659325333386
332,17.9996897600259
395,19.25813733086195
458,19.25813733086305
521,17.999689760027525
584,40.8534868699329
647,425.0241555081243
648,0.029496
651,116.59975836545672
652,0.001228699951171875
655,116.5997583654556
656,0.001228699951171875
659,425.0241555081175
660,0.029496
663,287.0497690197469
664,0.003823822265625001
667,462.2348515540763
668,0.029496
671,462.23485155405024
672,0.029496
675,287.0497690197275
676,0.003823822265625001
677,2579.893772859424
691,36.10531434717212
692,40.8534868699329
693,870.9782639601133
768,1.962356083823237
769,1.962356083823237
770,0.12998674
798,1083.2478277471541
2,1, 1,15, 0,22, 0.00,60.00,WinterDesignDay
7,-3.0
8,20.996721607512107
143,18.00003657902301
206,18.00003657902328
269,20.99672160751259
332,17.999761672647555
395,19.258292201490686
458,19.25829220149148
521,17.99976167264925
584,40.85402932706177
647,425.0330794545312
648,0.029496
651,116.68569742439887
652,0.0012296000976562498
655,116.68569742439759
656,0.0012296000976562498
659,425.03307945452127
660,0.029496
663,287.0557626470518
664,0.003823822265625001
667,462.24315753589883
668,0.029496
671,462.24315753588064
672,0.029496
675,287.05576264703024
676,0.003823822265625001
677,2580.079560032907
691,36.10551487179141
692,40.85402932706177
693,871.0537491844636
768,1.9623562263956127
769,1.9623562263956127
770,0.12998674
798,1083.437553757849
2,1, 1,15, 0,23, 0.00,60.00,WinterDesignDay
7,-3.0
8,20.996857603457304
143,17.999962737966143
206,17.99996273796641
269,20.996857603457855
332,17.999852878517245
395,19.258447086446417
458,19.258447086447234
521,17.9998528785188
584,40.85455116708439
647,425.04141122640897
648,0.029496
651,116.64646778244867
652,0.0012291500244140624
655,116.64646778244729
656,0.0012291500244140624
659,425.0414112263969
660,0.029496
663,287.06123595182953
664,0.003823822265625001
667,462.25102916192543
668,0.029496
671,462.251029161909
672,0.029496
675,287.06123595180964
676,0.003823822265625001
677,2580.0544507650984
691,36.10608292423437
692,40.85455116708439
693,871.0575501269273
768,1.9623566302796311
769,1.9623566302796311
770,0.12998674
798,1083.3757580177019
2,1, 1,15, 0,24, 0.00,60.00,WinterDesignDay
7,-3.0
8,20.996997305413643
143,17.999831381998654
206,17.999831381998913
269,20.996997305414208
332,17.999957568230617
395,19.258602712082897
458,19.25860271208396
521,17.999957568231977
584,40.855051092050466
647,425.0490909964907
648,0.029496
651,116.65045737924375
652,0.0012291500244140624
655,116.65045737924241
656,0.0012291500244140624
659,425.04909099647864
660,0.029496
663,287.06624586212564
664,0.003823822265625001
667,462.2584130239002
668,0.029496
671,462.25841302387886
672,0.029496
675,287.0662458621078
676,0.003823822265625001
677,2580.091206629093
691,36.10651520177042
692,40.855051092050466
693,871.0817219482522
768,1.9623569376279177
769,1.9623569376279177
770,0.12998674
798,1083.3990967514555
End of Data
 Number of Records Written=         816
