Program Version,EnergyPlus, Version 24.2.0-94a887817b, YMD=2025.06.25 12:35
1,5,Environment Title[],Latitude[deg],Longitude[deg],Time Zone[],Elevation[m]
2,8,Day of Simulation[],Month[],Day of Month[],DST Indicator[1=yes 0=no],Hour[],StartMinute[],EndMinute[],DayType
3,5,Cumulative Day of Simulation[],Month[],Day of Month[],DST Indicator[1=yes 0=no],DayType  ! When Daily Report Variables Requested
4,2,Cumulative Days of Simulation[],Month[]  ! When Monthly Report Variables Requested
5,1,Cumulative Days of Simulation[] ! When Run Period Report Variables Requested
6,1,Calendar Year of Simulation[] ! When Annual Report Variables Requested
7,1,Z1,Zone Air Temperature [C] !Hourly
142,1,Z2,Zone Air Temperature [C] !Hourly
205,1,Z3,Zone Air Temperature [C] !Hourly
268,1,Z4,Zone Air Temperature [C] !Hourly
393,1,Z1 RADIATOR,Baseboard Total Heating Rate [W] !Hourly
396,1,Z2 RADIATOR,Baseboard Total Heating Rate [W] !Hourly
399,1,Z3 RADIATOR,Baseboard Total Heating Rate [W] !Hourly
402,1,Z4 RADIATOR,Baseboard Total Heating Rate [W] !Hourly
403,1,HEAT PUMP,Heat Pump Load Side Heat Transfer Rate [W] !Hourly
417,1,HEAT PUMP,Heat Pump Electricity Rate [W] !Hourly
492,1,SUPPLY PUMP,Pump Electricity Rate [W] !Hourly
End of Data Dictionary
1,SUMMER DESIGN DAY IN SALFORD ENERGY HOUSE 1.0 (01-01:31-12) JUN HVAC Sizing Pass 1,  53.35,  -2.28,   0.00,  69.00
2,1, 6,15, 1, 1, 0.00,60.00,SummerDesignDay
7,21.403829974367007
142,21.40382996666073
205,21.40382997654995
268,21.40382996884367
393,0.0
396,0.0
399,0.0
402,0.0
403,0.0
417,0.0
492,0.0
2,1, 6,15, 1, 2, 0.00,60.00,SummerDesignDay
7,20.974649065204765
142,20.974649061608325
205,20.97464906622352
268,20.974649062627087
393,11.39329942734086
396,11.393299428409163
399,11.39329942703895
402,11.393299428107252
403,165.30436285146806
417,47.229817957562304
492,27.093723540481058
2,1, 6,15, 1, 3, 0.00,60.00,SummerDesignDay
7,20.990175016376977
142,20.990175014840826
205,20.990175016812138
268,20.990175015275984
393,50.539768099267285
396,50.53976810213313
399,50.53976809845676
402,50.53976810132261
403,153.08929689077516
417,43.73979911165004
492,54.20357155640721
2,1, 6,15, 1, 4, 0.00,60.00,SummerDesignDay
7,20.999738376538808
142,20.99973837583022
205,20.999738376747946
268,20.99973837603933
393,52.875753354267
396,52.875753355597745
399,52.87575335389541
402,52.87575335522151
403,162.4421015599229
417,46.41202901712082
492,54.20381315239876
2,1, 6,15, 1, 5, 0.00,60.00,SummerDesignDay
7,21.00000317803579
142,21.00000321128683
205,21.000003198234598
268,21.000003231485604
393,56.168658199830844
396,56.168658175415516
399,56.16865818363678
402,56.16865815922145
403,175.69678254723547
417,50.19908072778156
492,54.20483796621816
2,1, 6,15, 1, 6, 0.00,60.00,SummerDesignDay
7,20.999928162636845
142,20.999928319511184
205,20.999928232053502
268,20.99992838892785
393,55.865296950144554
396,55.86529675049289
399,55.86529685297089
402,55.86529665332156
403,174.8451859194957
417,49.9557674055702
492,54.20497213225349
2,1, 6,15, 1, 7, 0.00,60.00,SummerDesignDay
7,21.000026331132663
142,21.000026634386654
205,21.000026411797027
268,21.000026715051
393,48.71427041621504
396,48.71427003574402
399,48.71427029684626
402,48.71426991637058
403,146.76162384702872
417,41.931892527722496
492,54.20313767865832
2,1, 6,15, 1, 8, 0.00,60.00,SummerDesignDay
7,21.000083063352253
142,21.000083470232788
205,21.000083101080165
268,21.000083507960667
393,30.164361401727493
396,30.16436106229784
399,30.164361351638078
402,30.164361012208417
403,0.0
417,0.0
492,0.018389483389901037
2,1, 6,15, 1, 9, 0.00,60.00,SummerDesignDay
7,21.004929176562392
142,21.00492961722386
205,21.00492913820861
268,21.004929578870012
393,5.893919272659838
396,5.8939191975094545
399,5.893919272062983
402,5.893919196907953
403,0.0
417,0.0
492,0.003593016216823552
2,1, 6,15, 1,10, 0.00,60.00,SummerDesignDay
7,21.166104070364227
142,21.166104485260067
205,21.16610392702969
268,21.166104341925507
393,0.0
396,0.0
399,0.0
402,0.0
403,0.0
417,0.0
492,0.0
2,1, 6,15, 1,11, 0.00,60.00,SummerDesignDay
7,21.548469368517527
142,21.54846969340877
205,21.54846913355857
268,21.548469458449805
393,0.0
396,0.0
399,0.0
402,0.0
403,0.0
417,0.0
492,0.0
2,1, 6,15, 1,12, 0.00,60.00,SummerDesignDay
7,22.04466096063559
142,22.04466115577281
205,22.044660663459958
268,22.04466085859718
393,0.0
396,0.0
399,0.0
402,0.0
403,0.0
417,0.0
492,0.0
2,1, 6,15, 1,13, 0.00,60.00,SummerDesignDay
7,22.574304470585048
142,22.574304514231933
205,22.574304145109732
268,22.57430418875663
393,0.0
396,0.0
399,0.0
402,0.0
403,0.0
417,0.0
492,0.0
2,1, 6,15, 1,14, 0.00,60.00,SummerDesignDay
7,23.098472086127085
142,23.09847197323756
205,23.098471768574356
268,23.098471655684847
393,0.0
396,0.0
399,0.0
402,0.0
403,0.0
417,0.0
492,0.0
2,1, 6,15, 1,15, 0.00,60.00,SummerDesignDay
7,23.561454902787258
142,23.561454643826462
205,23.561454627898314
268,23.561454368937525
393,0.0
396,0.0
399,0.0
402,0.0
403,0.0
417,0.0
492,0.0
2,1, 6,15, 1,16, 0.00,60.00,SummerDesignDay
7,23.89410563891083
142,23.89410525416683
205,23.894105434633538
268,23.89410504988954
393,0.0
396,0.0
399,0.0
402,0.0
403,0.0
417,0.0
492,0.0
2,1, 6,15, 1,17, 0.00,60.00,SummerDesignDay
7,24.05666296203076
142,24.056662495525785
205,24.05666285184802
268,24.056662385343046
393,0.0
396,0.0
399,0.0
402,0.0
403,0.0
417,0.0
492,0.0
2,1, 6,15, 1,18, 0.00,60.00,SummerDesignDay
7,24.06177672446147
142,24.061776230347913
205,24.061776712981402
268,24.061776218867845
393,0.0
396,0.0
399,0.0
402,0.0
403,0.0
417,0.0
492,0.0
2,1, 6,15, 1,19, 0.00,60.00,SummerDesignDay
7,23.91581297522994
142,23.91581252752915
205,23.915813032337688
268,23.91581258463691
393,0.0
396,0.0
399,0.0
402,0.0
403,0.0
417,0.0
492,0.0
2,1, 6,15, 1,20, 0.00,60.00,SummerDesignDay
7,23.62045125479893
142,23.620450928812197
205,23.620451338226204
268,23.62045101223948
393,0.0
396,0.0
399,0.0
402,0.0
403,0.0
417,0.0
492,0.0
2,1, 6,15, 1,21, 0.00,60.00,SummerDesignDay
7,23.24426143737552
142,23.244261273745693
205,23.244261484015233
268,23.2442613203854
393,0.0
396,0.0
399,0.0
402,0.0
403,0.0
417,0.0
492,0.0
2,1, 6,15, 1,22, 0.00,60.00,SummerDesignDay
7,22.816932184368444
142,22.816932108377905
205,22.81693220590175
268,22.81693212991121
393,0.0
396,0.0
399,0.0
402,0.0
403,0.0
417,0.0
492,0.0
2,1, 6,15, 1,23, 0.00,60.00,SummerDesignDay
7,22.354772427565987
142,22.354772392157347
205,22.354772437596377
268,22.35477240218774
393,0.0
396,0.0
399,0.0
402,0.0
403,0.0
417,0.0
492,0.0
2,1, 6,15, 1,24, 0.00,60.00,SummerDesignDay
7,21.881614500459804
142,21.881614483947796
205,21.88161450513713
268,21.881614488625118
393,0.0
396,0.0
399,0.0
402,0.0
403,0.0
417,0.0
492,0.0
1,WINTER DESIGN DAY IN (MID) UK HVAC Sizing Pass 1,  53.35,  -2.28,   0.00,  69.00
2,1, 1,15, 0, 1, 0.00,60.00,WinterDesignDay
7,20.999791225054892
142,20.999791225054892
205,20.999791225054892
268,20.999791225054892
393,444.30825678888027
396,444.30825678888027
399,444.30825678888027
402,444.30825678888027
403,1679.6834186496612
417,479.90954818561755
492,108.37243116944427
2,1, 1,15, 0, 2, 0.00,60.00,WinterDesignDay
7,20.999571831807962
142,20.999571831807962
205,20.999571831807962
268,20.999571831807962
393,444.15474114124606
396,444.15474114124606
399,444.15474114124606
402,444.15474114124606
403,1679.1544887512532
417,479.75842535750087
492,108.37243244855696
2,1, 1,15, 0, 3, 0.00,60.00,WinterDesignDay
7,21.00022864048485
142,21.00022864048485
205,21.00022864048485
268,21.00022864048485
393,444.45821969685807
396,444.45821969685807
399,444.45821969685807
402,444.45821969685807
403,1680.2420081175558
417,480.0691451764444
492,108.3724298186133
2,1, 1,15, 0, 4, 0.00,60.00,WinterDesignDay
7,20.99979538115379
142,20.99979538115379
205,20.99979538115379
268,20.99979538115379
393,444.30639846175205
396,444.30639846175205
399,444.30639846175205
402,444.30639846175205
403,1679.676500397513
417,479.9075715421466
492,108.37243118617451
2,1, 1,15, 0, 5, 0.00,60.00,WinterDesignDay
7,20.99999727833341
142,20.99999727833341
205,20.99999727833341
268,20.99999727833341
393,444.305292948528
396,444.305292948528
399,444.305292948528
402,444.305292948528
403,1679.715326704233
417,479.918664772638
492,108.37243109228187
2,1, 1,15, 0, 6, 0.00,60.00,WinterDesignDay
7,21.000079088485293
142,21.000079088485293
205,21.000079088485293
268,21.000079088485293
393,444.4601768467529
396,444.4601768467529
399,444.4601768467529
402,444.4601768467529
403,1680.2069742958633
417,480.05913551310385
492,108.37242990333465
2,1, 1,15, 0, 7, 0.00,60.00,WinterDesignDay
7,20.999635209296883
142,20.999635209296883
205,20.999635209296883
268,20.999635209296883
393,444.15397241662953
396,444.15397241662953
399,444.15397241662953
402,444.15397241662953
403,1679.1512821476076
417,479.7575091850307
492,108.3724324563114
2,1, 1,15, 0, 8, 0.00,60.00,WinterDesignDay
7,21.00027629667136
142,21.00027629667136
205,21.00027629667136
268,21.00027629667136
393,444.457557655959
396,444.457557655959
399,444.457557655959
402,444.457557655959
403,1680.2393425928972
417,480.0683835979707
492,108.37242982505927
2,1, 1,15, 0, 9, 0.00,60.00,WinterDesignDay
7,20.999833548285032
142,20.999833548285032
205,20.999833548285032
268,20.999833548285032
393,444.3058769533051
396,444.3058769533051
399,444.3058769533051
402,444.3058769533051
403,1679.6744058483898
417,479.90697309953987
492,108.3724311912397
2,1, 1,15, 0,10, 0.00,60.00,WinterDesignDay
7,21.000029493063266
142,21.000029493063266
205,21.000029493063266
268,21.000029493063266
393,444.3048537440293
396,444.3048537440293
399,444.3048537440293
402,444.3048537440293
403,1679.713565100685
417,479.91816145733856
492,108.3724310965419
2,1, 1,15, 0,11, 0.00,60.00,WinterDesignDay
7,21.000107044436028
142,21.000107044436028
205,21.000107044436028
268,21.000107044436028
393,444.45979911770917
396,444.45979911770917
399,444.45979911770917
402,444.45979911770917
403,1680.2054591605877
417,480.0587026173107
492,108.37242990699868
2,1, 1,15, 0,12, 0.00,60.00,WinterDesignDay
7,20.99965958684831
142,20.99965958684831
205,20.99965958684831
268,20.99965958684831
393,444.1536419374517
396,444.1536419374517
399,444.1536419374517
402,444.1536419374517
403,1679.1499572682592
417,479.75713064807405
492,108.37243245951532
2,1, 1,15, 0,13, 0.00,60.00,WinterDesignDay
7,21.000297763958468
142,21.000297763958468
205,21.000297763958468
268,21.000297763958468
393,444.45726836125493
396,444.45726836125493
399,444.45726836125493
402,444.45726836125493
403,1680.2381829627682
417,480.06805227507664
492,108.37242982786356
2,1, 1,15, 0,14, 0.00,60.00,WinterDesignDay
7,20.999852384022432
142,20.999852384022432
205,20.999852384022432
268,20.999852384022432
393,444.3056232931334
396,444.3056232931334
399,444.3056232931334
402,444.3056232931334
403,1679.6733887601579
417,479.9066825029023
492,108.3724311936993
2,1, 1,15, 0,15, 0.00,60.00,WinterDesignDay
7,21.000117316626408
142,21.000117316626408
205,21.000117316626408
268,21.000117316626408
393,444.45870194451186
396,444.45870194451186
399,444.45870194451186
402,444.45870194451186
403,1680.2445933943982
417,480.0698838269709
492,108.37242981235475
2,1, 1,15, 0,16, 0.00,60.00,WinterDesignDay
7,20.999791225054494
142,20.999791225054494
205,20.999791225054494
268,20.999791225054494
393,444.3082567888849
396,444.3082567888849
399,444.3082567888849
402,444.3082567888849
403,1679.6834186496612
417,479.90954818561755
492,108.37243116944427
2,1, 1,15, 0,17, 0.00,60.00,WinterDesignDay
7,20.99957183180764
142,20.99957183180764
205,20.99957183180764
268,20.99957183180764
393,444.1547411412552
396,444.1547411412552
399,444.1547411412552
402,444.1547411412552
403,1679.154488751402
417,479.7584253575434
492,108.37243244855696
2,1, 1,15, 0,18, 0.00,60.00,WinterDesignDay
7,21.00022864048458
142,21.00022864048458
205,21.00022864048458
268,21.00022864048458
393,444.45821969686494
396,444.45821969686494
399,444.45821969686494
402,444.45821969686494
403,1680.2420081175558
417,480.0691451764444
492,108.3724298186133
2,1, 1,15, 0,19, 0.00,60.00,WinterDesignDay
7,20.999795381153554
142,20.999795381153554
205,20.999795381153554
268,20.999795381153554
393,444.30639846175666
396,444.30639846175666
399,444.30639846175666
402,444.30639846175666
403,1679.6765003975875
417,479.90757154216783
492,108.37243118617451
2,1, 1,15, 0,20, 0.00,60.00,WinterDesignDay
7,20.999997278333197
142,20.999997278333197
205,20.999997278333197
268,20.999997278333197
393,444.3052929485303
396,444.3052929485303
399,444.3052929485303
402,444.3052929485303
403,1679.715326704233
417,479.918664772638
492,108.37243109228187
2,1, 1,15, 0,21, 0.00,60.00,WinterDesignDay
7,21.00007908848513
142,21.00007908848513
205,21.00007908848513
268,21.00007908848513
393,444.4601768467598
396,444.4601768467598
399,444.4601768467598
402,444.4601768467598
403,1680.2069742960118
417,480.05913551314626
492,108.37242990333465
2,1, 1,15, 0,22, 0.00,60.00,WinterDesignDay
7,20.99963520929672
142,20.99963520929672
205,20.99963520929672
268,20.99963520929672
393,444.1539724166318
396,444.1539724166318
399,444.1539724166318
402,444.1539724166318
403,1679.1512821476076
417,479.7575091850307
492,108.3724324563114
2,1, 1,15, 0,23, 0.00,60.00,WinterDesignDay
7,21.000276296671235
142,21.000276296671235
205,21.000276296671235
268,21.000276296671235
393,444.4575576559613
396,444.4575576559613
399,444.4575576559613
402,444.4575576559613
403,1680.2393425929345
417,480.0683835979813
492,108.37242982505927
2,1, 1,15, 0,24, 0.00,60.00,WinterDesignDay
7,20.999833548284904
142,20.999833548284904
205,20.999833548284904
268,20.999833548284904
393,444.3058769533051
396,444.3058769533051
399,444.3058769533051
402,444.3058769533051
403,1679.6744058483898
417,479.90697309953987
492,108.3724311912397
1,SUMMER DESIGN DAY IN SALFORD ENERGY HOUSE 1.0 (01-01:31-12) JUN,  53.35,  -2.28,   0.00,  69.00
2,1, 6,15, 1, 1, 0.00,60.00,SummerDesignDay
7,21.403829974367007
142,21.40382996666073
205,21.40382997654995
268,21.40382996884367
393,0.0
396,0.0
399,0.0
402,0.0
403,0.0
417,0.0
492,0.0
2,1, 6,15, 1, 2, 0.00,60.00,SummerDesignDay
7,20.974649065204765
142,20.974649061608325
205,20.97464906622352
268,20.974649062627087
393,11.39329942734086
396,11.393299428409163
399,11.39329942703895
402,11.393299428107252
403,165.30436285146806
417,47.229817957562304
492,27.093723540481058
2,1, 6,15, 1, 3, 0.00,60.00,SummerDesignDay
7,20.990175016376977
142,20.990175014840826
205,20.990175016812138
268,20.990175015275984
393,50.539768099267285
396,50.53976810213313
399,50.53976809845676
402,50.53976810132261
403,153.08929689077516
417,43.73979911165004
492,54.20357155640721
2,1, 6,15, 1, 4, 0.00,60.00,SummerDesignDay
7,20.999738376538808
142,20.99973837583022
205,20.999738376747946
268,20.99973837603933
393,52.875753354267
396,52.875753355597745
399,52.87575335389541
402,52.87575335522151
403,162.4421015599229
417,46.41202901712082
492,54.20381315239876
2,1, 6,15, 1, 5, 0.00,60.00,SummerDesignDay
7,21.00000317803579
142,21.00000321128683
205,21.000003198234598
268,21.000003231485604
393,56.168658199830844
396,56.168658175415516
399,56.16865818363678
402,56.16865815922145
403,175.69678254723547
417,50.19908072778156
492,54.20483796621816
2,1, 6,15, 1, 6, 0.00,60.00,SummerDesignDay
7,20.999928162636845
142,20.999928319511184
205,20.999928232053502
268,20.99992838892785
393,55.865296950144554
396,55.86529675049289
399,55.86529685297089
402,55.86529665332156
403,174.8451859194957
417,49.9557674055702
492,54.20497213225349
2,1, 6,15, 1, 7, 0.00,60.00,SummerDesignDay
7,21.000026331132663
142,21.000026634386654
205,21.000026411797027
268,21.000026715051
393,48.71427041621504
396,48.71427003574402
399,48.71427029684626
402,48.71426991637058
403,146.76162384702872
417,41.931892527722496
492,54.20313767865832
2,1, 6,15, 1, 8, 0.00,60.00,SummerDesignDay
7,21.000083063352253
142,21.000083470232788
205,21.000083101080165
268,21.000083507960667
393,30.164361401727493
396,30.16436106229784
399,30.164361351638078
402,30.164361012208417
403,0.0
417,0.0
492,0.018389483389901037
2,1, 6,15, 1, 9, 0.00,60.00,SummerDesignDay
7,21.004929176562392
142,21.00492961722386
205,21.00492913820861
268,21.004929578870012
393,5.893919272659838
396,5.8939191975094545
399,5.893919272062983
402,5.893919196907953
403,0.0
417,0.0
492,0.003593016216823552
2,1, 6,15, 1,10, 0.00,60.00,SummerDesignDay
7,21.166104070364227
142,21.166104485260067
205,21.16610392702969
268,21.166104341925507
393,0.0
396,0.0
399,0.0
402,0.0
403,0.0
417,0.0
492,0.0
2,1, 6,15, 1,11, 0.00,60.00,SummerDesignDay
7,21.548469368517527
142,21.54846969340877
205,21.54846913355857
268,21.548469458449805
393,0.0
396,0.0
399,0.0
402,0.0
403,0.0
417,0.0
492,0.0
2,1, 6,15, 1,12, 0.00,60.00,SummerDesignDay
7,22.04466096063559
142,22.04466115577281
205,22.044660663459958
268,22.04466085859718
393,0.0
396,0.0
399,0.0
402,0.0
403,0.0
417,0.0
492,0.0
2,1, 6,15, 1,13, 0.00,60.00,SummerDesignDay
7,22.574304470585048
142,22.574304514231933
205,22.574304145109732
268,22.57430418875663
393,0.0
396,0.0
399,0.0
402,0.0
403,0.0
417,0.0
492,0.0
2,1, 6,15, 1,14, 0.00,60.00,SummerDesignDay
7,23.098472086127085
142,23.09847197323756
205,23.098471768574356
268,23.098471655684847
393,0.0
396,0.0
399,0.0
402,0.0
403,0.0
417,0.0
492,0.0
2,1, 6,15, 1,15, 0.00,60.00,SummerDesignDay
7,23.561454902787258
142,23.561454643826462
205,23.561454627898314
268,23.561454368937525
393,0.0
396,0.0
399,0.0
402,0.0
403,0.0
417,0.0
492,0.0
2,1, 6,15, 1,16, 0.00,60.00,SummerDesignDay
7,23.89410563891083
142,23.89410525416683
205,23.894105434633538
268,23.89410504988954
393,0.0
396,0.0
399,0.0
402,0.0
403,0.0
417,0.0
492,0.0
2,1, 6,15, 1,17, 0.00,60.00,SummerDesignDay
7,24.05666296203076
142,24.056662495525785
205,24.05666285184802
268,24.056662385343046
393,0.0
396,0.0
399,0.0
402,0.0
403,0.0
417,0.0
492,0.0
2,1, 6,15, 1,18, 0.00,60.00,SummerDesignDay
7,24.06177672446147
142,24.061776230347913
205,24.061776712981402
268,24.061776218867845
393,0.0
396,0.0
399,0.0
402,0.0
403,0.0
417,0.0
492,0.0
2,1, 6,15, 1,19, 0.00,60.00,SummerDesignDay
7,23.91581297522994
142,23.91581252752915
205,23.915813032337688
268,23.91581258463691
393,0.0
396,0.0
399,0.0
402,0.0
403,0.0
417,0.0
492,0.0
2,1, 6,15, 1,20, 0.00,60.00,SummerDesignDay
7,23.62045125479893
142,23.620450928812197
205,23.620451338226204
268,23.62045101223948
393,0.0
396,0.0
399,0.0
402,0.0
403,0.0
417,0.0
492,0.0
2,1, 6,15, 1,21, 0.00,60.00,SummerDesignDay
7,23.24426143737552
142,23.244261273745693
205,23.244261484015233
268,23.2442613203854
393,0.0
396,0.0
399,0.0
402,0.0
403,0.0
417,0.0
492,0.0
2,1, 6,15, 1,22, 0.00,60.00,SummerDesignDay
7,22.816932184368444
142,22.816932108377905
205,22.81693220590175
268,22.81693212991121
393,0.0
396,0.0
399,0.0
402,0.0
403,0.0
417,0.0
492,0.0
2,1, 6,15, 1,23, 0.00,60.00,SummerDesignDay
7,22.354772427565987
142,22.354772392157347
205,22.354772437596377
268,22.35477240218774
393,0.0
396,0.0
399,0.0
402,0.0
403,0.0
417,0.0
492,0.0
2,1, 6,15, 1,24, 0.00,60.00,SummerDesignDay
7,21.881614500459804
142,21.881614483947796
205,21.88161450513713
268,21.881614488625118
393,0.0
396,0.0
399,0.0
402,0.0
403,0.0
417,0.0
492,0.0
1,WINTER DESIGN DAY IN (MID) UK,  53.35,  -2.28,   0.00,  69.00
2,1, 1,15, 0, 1, 0.00,60.00,WinterDesignDay
7,20.999791225054892
142,20.999791225054892
205,20.999791225054892
268,20.999791225054892
393,444.30825678888027
396,444.30825678888027
399,444.30825678888027
402,444.30825678888027
403,1679.6834186496612
417,479.90954818561755
492,108.37243116944427
2,1, 1,15, 0, 2, 0.00,60.00,WinterDesignDay
7,20.999571831807962
142,20.999571831807962
205,20.999571831807962
268,20.999571831807962
393,444.15474114124606
396,444.15474114124606
399,444.15474114124606
402,444.15474114124606
403,1679.1544887512532
417,479.75842535750087
492,108.37243244855696
2,1, 1,15, 0, 3, 0.00,60.00,WinterDesignDay
7,21.00022864048485
142,21.00022864048485
205,21.00022864048485
268,21.00022864048485
393,444.45821969685807
396,444.45821969685807
399,444.45821969685807
402,444.45821969685807
403,1680.2420081175558
417,480.0691451764444
492,108.3724298186133
2,1, 1,15, 0, 4, 0.00,60.00,WinterDesignDay
7,20.99979538115379
142,20.99979538115379
205,20.99979538115379
268,20.99979538115379
393,444.30639846175205
396,444.30639846175205
399,444.30639846175205
402,444.30639846175205
403,1679.676500397513
417,479.9075715421466
492,108.37243118617451
2,1, 1,15, 0, 5, 0.00,60.00,WinterDesignDay
7,20.99999727833341
142,20.99999727833341
205,20.99999727833341
268,20.99999727833341
393,444.305292948528
396,444.305292948528
399,444.305292948528
402,444.305292948528
403,1679.715326704233
417,479.918664772638
492,108.37243109228187
2,1, 1,15, 0, 6, 0.00,60.00,WinterDesignDay
7,21.000079088485293
142,21.000079088485293
205,21.000079088485293
268,21.000079088485293
393,444.4601768467529
396,444.4601768467529
399,444.4601768467529
402,444.4601768467529
403,1680.2069742958633
417,480.05913551310385
492,108.37242990333465
2,1, 1,15, 0, 7, 0.00,60.00,WinterDesignDay
7,20.999635209296883
142,20.999635209296883
205,20.999635209296883
268,20.999635209296883
393,444.15397241662953
396,444.15397241662953
399,444.15397241662953
402,444.15397241662953
403,1679.1512821476076
417,479.7575091850307
492,108.3724324563114
2,1, 1,15, 0, 8, 0.00,60.00,WinterDesignDay
7,21.00027629667136
142,21.00027629667136
205,21.00027629667136
268,21.00027629667136
393,444.457557655959
396,444.457557655959
399,444.457557655959
402,444.457557655959
403,1680.2393425928972
417,480.0683835979707
492,108.37242982505927
2,1, 1,15, 0, 9, 0.00,60.00,WinterDesignDay
7,20.999833548285032
142,20.999833548285032
205,20.999833548285032
268,20.999833548285032
393,444.3058769533051
396,444.3058769533051
399,444.3058769533051
402,444.3058769533051
403,1679.6744058483898
417,479.90697309953987
492,108.3724311912397
2,1, 1,15, 0,10, 0.00,60.00,WinterDesignDay
7,21.000029493063266
142,21.000029493063266
205,21.000029493063266
268,21.000029493063266
393,444.3048537440293
396,444.3048537440293
399,444.3048537440293
402,444.3048537440293
403,1679.713565100685
417,479.91816145733856
492,108.3724310965419
2,1, 1,15, 0,11, 0.00,60.00,WinterDesignDay
7,21.000107044436028
142,21.000107044436028
205,21.000107044436028
268,21.000107044436028
393,444.45979911770917
396,444.45979911770917
399,444.45979911770917
402,444.45979911770917
403,1680.2054591605877
417,480.0587026173107
492,108.37242990699868
2,1, 1,15, 0,12, 0.00,60.00,WinterDesignDay
7,20.99965958684831
142,20.99965958684831
205,20.99965958684831
268,20.99965958684831
393,444.1536419374517
396,444.1536419374517
399,444.1536419374517
402,444.1536419374517
403,1679.1499572682592
417,479.75713064807405
492,108.37243245951532
2,1, 1,15, 0,13, 0.00,60.00,WinterDesignDay
7,21.000297763958468
142,21.000297763958468
205,21.000297763958468
268,21.000297763958468
393,444.45726836125493
396,444.45726836125493
399,444.45726836125493
402,444.45726836125493
403,1680.2381829627682
417,480.06805227507664
492,108.37242982786356
2,1, 1,15, 0,14, 0.00,60.00,WinterDesignDay
7,20.999852384022432
142,20.999852384022432
205,20.999852384022432
268,20.999852384022432
393,444.3056232931334
396,444.3056232931334
399,444.3056232931334
402,444.3056232931334
403,1679.6733887601579
417,479.9066825029023
492,108.3724311936993
2,1, 1,15, 0,15, 0.00,60.00,WinterDesignDay
7,21.000117316626408
142,21.000117316626408
205,21.000117316626408
268,21.000117316626408
393,444.45870194451186
396,444.45870194451186
399,444.45870194451186
402,444.45870194451186
403,1680.2445933943982
417,480.0698838269709
492,108.37242981235475
2,1, 1,15, 0,16, 0.00,60.00,WinterDesignDay
7,20.999791225054494
142,20.999791225054494
205,20.999791225054494
268,20.999791225054494
393,444.3082567888849
396,444.3082567888849
399,444.3082567888849
402,444.3082567888849
403,1679.6834186496612
417,479.90954818561755
492,108.37243116944427
2,1, 1,15, 0,17, 0.00,60.00,WinterDesignDay
7,20.99957183180764
142,20.99957183180764
205,20.99957183180764
268,20.99957183180764
393,444.1547411412552
396,444.1547411412552
399,444.1547411412552
402,444.1547411412552
403,1679.154488751402
417,479.7584253575434
492,108.37243244855696
2,1, 1,15, 0,18, 0.00,60.00,WinterDesignDay
7,21.00022864048458
142,21.00022864048458
205,21.00022864048458
268,21.00022864048458
393,444.45821969686494
396,444.45821969686494
399,444.45821969686494
402,444.45821969686494
403,1680.2420081175558
417,480.0691451764444
492,108.3724298186133
2,1, 1,15, 0,19, 0.00,60.00,WinterDesignDay
7,20.999795381153554
142,20.999795381153554
205,20.999795381153554
268,20.999795381153554
393,444.30639846175666
396,444.30639846175666
399,444.30639846175666
402,444.30639846175666
403,1679.6765003975875
417,479.90757154216783
492,108.37243118617451
2,1, 1,15, 0,20, 0.00,60.00,WinterDesignDay
7,20.999997278333197
142,20.999997278333197
205,20.999997278333197
268,20.999997278333197
393,444.3052929485303
396,444.3052929485303
399,444.3052929485303
402,444.3052929485303
403,1679.715326704233
417,479.918664772638
492,108.37243109228187
2,1, 1,15, 0,21, 0.00,60.00,WinterDesignDay
7,21.00007908848513
142,21.00007908848513
205,21.00007908848513
268,21.00007908848513
393,444.4601768467598
396,444.4601768467598
399,444.4601768467598
402,444.4601768467598
403,1680.2069742960118
417,480.05913551314626
492,108.37242990333465
2,1, 1,15, 0,22, 0.00,60.00,WinterDesignDay
7,20.99963520929672
142,20.99963520929672
205,20.99963520929672
268,20.99963520929672
393,444.1539724166318
396,444.1539724166318
399,444.1539724166318
402,444.1539724166318
403,1679.1512821476076
417,479.7575091850307
492,108.3724324563114
2,1, 1,15, 0,23, 0.00,60.00,WinterDesignDay
7,21.000276296671235
142,21.000276296671235
205,21.000276296671235
268,21.000276296671235
393,444.4575576559613
396,444.4575576559613
399,444.4575576559613
402,444.4575576559613
403,1680.2393425929345
417,480.0683835979813
492,108.37242982505927
2,1, 1,15, 0,24, 0.00,60.00,WinterDesignDay
7,20.999833548284904
142,20.999833548284904
205,20.999833548284904
268,20.999833548284904
393,444.3058769533051
396,444.3058769533051
399,444.3058769533051
402,444.3058769533051
403,1679.6744058483898
417,479.90697309953987
492,108.3724311912397
End of Data
 Number of Records Written=        1056
