Program Version,EnergyPlus, Version 24.2.0-94a887817b, YMD=2025.06.25 12:35
1,5,Environment Title[],Latitude[deg],Longitude[deg],Time Zone[],Elevation[m]
2,8,Day of Simulation[],Month[],Day of Month[],DST Indicator[1=yes 0=no],Hour[],StartMinute[],EndMinute[],DayType
3,5,Cumulative Day of Simulation[],Month[],Day of Month[],DST Indicator[1=yes 0=no],DayType  ! When Daily Report Variables Requested
4,2,Cumulative Days of Simulation[],Month[]  ! When Monthly Report Variables Requested
5,1,Cumulative Days of Simulation[] ! When Run Period Report Variables Requested
6,1,Calendar Year of Simulation[] ! When Annual Report Variables Requested
7,1,Z1,Zone Air Temperature [C] !Hourly
142,1,Z2,Zone Air Temperature [C] !Hourly
205,1,Z3,Zone Air Temperature [C] !Hourly
268,1,Z4,Zone Air Temperature [C] !Hourly
393,1,Z1 RADIATOR,Baseboard Total Heating Rate [W] !Hourly
396,1,Z2 RADIATOR,Baseboard Total Heating Rate [W] !Hourly
399,1,Z3 RADIATOR,Baseboard Total Heating Rate [W] !Hourly
402,1,Z4 RADIATOR,Baseboard Total Heating Rate [W] !Hourly
403,1,HEAT PUMP,Heat Pump Load Side Heat Transfer Rate [W] !Hourly
417,1,HEAT PUMP,Heat Pump Electricity Rate [W] !Hourly
492,1,SUPPLY PUMP,Pump Electricity Rate [W] !Hourly
End of Data Dictionary
1,SUMMER DESIGN DAY IN SALFORD ENERGY HOUSE 1.0 (01-01:31-12) JUN HVAC Sizing Pass 1,  53.35,  -2.28,   0.00,  69.00
2,1, 6,15, 1, 1, 0.00,60.00,SummerDesignDay
7,21.39810832841874
142,21.398108320638656
205,21.398108330529585
268,21.3981083228946
393,0.0
396,0.0
399,0.0
402,0.0
403,0.0
417,0.0
492,0.0
2,1, 6,15, 1, 2, 0.00,60.00,SummerDesignDay
7,20.972257403851952
142,20.935620739485344
205,20.935620744105385
268,20.972257401274025
393,12.177756829432655
396,0.0
399,0.0
402,12.177756830252466
403,139.9452463886157
417,39.98435611103305
492,27.09378486855292
2,1, 6,15, 1, 3, 0.00,60.00,SummerDesignDay
7,21.06055969808922
142,20.532435221158742
205,20.532435223318377
268,21.060559697008266
393,64.63432295530234
396,0.0
399,0.0
402,64.63432295785933
403,104.13283632088344
417,29.75223894882384
492,27.108165871296162
2,1, 6,15, 1, 4, 0.00,60.00,SummerDesignDay
7,21.173538616578846
142,20.261641649365647
205,20.261641650376127
268,21.17353861617129
393,79.51296049446685
396,0.0
399,0.0
402,79.5129604957047
403,92.21726946491647
417,26.34779127569042
492,27.11203943878452
2,1, 6,15, 1, 5, 0.00,60.00,SummerDesignDay
7,21.235556080959615
142,20.092350552159697
205,20.092350539012727
268,21.235556143464414
393,89.67678530589052
396,0.0
399,0.0
402,89.67678522546831
403,172.2406365136141
417,49.21161043246117
492,54.20142433690422
2,1, 6,15, 1, 6, 0.00,60.00,SummerDesignDay
7,21.273548039510196
142,20.000176473005858
205,20.00017638135897
268,21.273548299320673
393,93.17121970555421
396,0.0
399,0.0
402,93.17121912276076
403,137.55717336811477
417,39.30204953374707
492,54.20224839032298
2,1, 6,15, 1, 7, 0.00,60.00,SummerDesignDay
7,21.28945926461249
142,20.003285082051974
205,20.00328485695801
268,21.289459670288174
393,87.10113257395695
396,0.0
399,0.0
402,87.10113160190454
403,65.6590512841165
417,18.759728938319
492,27.11393994447925
2,1, 6,15, 1, 8, 0.00,60.00,SummerDesignDay
7,21.26970082366506
142,20.16441053647376
205,20.164410157106378
268,21.269701273079168
393,63.31178507730807
396,0.0
399,0.0
402,63.31178423684024
403,98.23214836600968
417,28.066328104574193
492,27.107519616758324
2,1, 6,15, 1, 9, 0.00,60.00,SummerDesignDay
7,21.194728947634
142,20.508238675804304
205,20.508238183324238
268,21.194729351332843
393,24.83720133227393
396,0.0
399,0.0
402,24.83720101573147
403,0.0
417,0.0
492,0.007622138007629818
2,1, 6,15, 1,10, 0.00,60.00,SummerDesignDay
7,21.155978636654094
142,20.954240218615208
205,20.95423966108421
268,21.155978922805247
393,0.3451057114360528
396,0.0
399,0.0
402,0.3451057076482263
403,0.0
417,0.0
492,0.00010567616432345703
2,1, 6,15, 1,11, 0.00,60.00,SummerDesignDay
7,21.471853672540618
142,21.439195204519187
205,21.439194644502646
268,21.471853769420804
393,0.0
396,0.0
399,0.0
402,0.0
403,0.0
417,0.0
492,0.0
2,1, 6,15, 1,12, 0.00,60.00,SummerDesignDay
7,21.97252757478117
142,21.966859859507245
205,21.966859367124034
268,21.972527474958746
393,0.0
396,0.0
399,0.0
402,0.0
403,0.0
417,0.0
492,0.0
2,1, 6,15, 1,13, 0.00,60.00,SummerDesignDay
7,22.51438243593502
142,22.513407615949344
205,22.513407246809965
268,22.514382154790106
393,0.0
396,0.0
399,0.0
402,0.0
403,0.0
417,0.0
492,0.0
2,1, 6,15, 1,14, 0.00,60.00,SummerDesignDay
7,23.04977493797351
142,23.049607318467274
205,23.04960711380643
268,23.049774507726266
393,0.0
396,0.0
399,0.0
402,0.0
403,0.0
417,0.0
492,0.0
2,1, 6,15, 1,15, 0.00,60.00,SummerDesignDay
7,23.522078927454892
142,23.522049794103808
205,23.522049778199126
268,23.52207839363921
393,0.0
396,0.0
399,0.0
402,0.0
403,0.0
417,0.0
492,0.0
2,1, 6,15, 1,16, 0.00,60.00,SummerDesignDay
7,23.862315282523646
142,23.862309889624385
205,23.862310070144368
268,23.862314693486837
393,0.0
396,0.0
399,0.0
402,0.0
403,0.0
417,0.0
492,0.0
2,1, 6,15, 1,17, 0.00,60.00,SummerDesignDay
7,24.031210776482517
142,24.03120941594866
205,24.03120977252225
268,24.031210199783242
393,0.0
396,0.0
399,0.0
402,0.0
403,0.0
417,0.0
492,0.0
2,1, 6,15, 1,18, 0.00,60.00,SummerDesignDay
7,24.041030614268205
142,24.041029945243118
205,24.04103042800142
268,24.041030108661296
393,0.0
396,0.0
399,0.0
402,0.0
403,0.0
417,0.0
492,0.0
2,1, 6,15, 1,19, 0.00,60.00,SummerDesignDay
7,23.898494776319104
142,23.898494275151013
205,23.89849478002176
268,23.89849438571233
393,0.0
396,0.0
399,0.0
402,0.0
403,0.0
417,0.0
492,0.0
2,1, 6,15, 1,20, 0.00,60.00,SummerDesignDay
7,23.606012478925827
142,23.606012135017675
205,23.606012544466815
268,23.606012236354776
393,0.0
396,0.0
399,0.0
402,0.0
403,0.0
417,0.0
492,0.0
2,1, 6,15, 1,21, 0.00,60.00,SummerDesignDay
7,23.232246107471653
142,23.23224593786045
205,23.232246148151006
268,23.232245990473217
393,0.0
396,0.0
399,0.0
402,0.0
403,0.0
417,0.0
492,0.0
2,1, 6,15, 1,22, 0.00,60.00,SummerDesignDay
7,22.806942381239054
142,22.806942303254814
205,22.80694240079065
268,22.806942326776696
393,0.0
396,0.0
399,0.0
402,0.0
403,0.0
417,0.0
492,0.0
2,1, 6,15, 1,23, 0.00,60.00,SummerDesignDay
7,22.346475116661612
142,22.346475080589578
205,22.346475126035067
268,22.34647509128049
393,0.0
396,0.0
399,0.0
402,0.0
403,0.0
417,0.0
492,0.0
2,1, 6,15, 1,24, 0.00,60.00,SummerDesignDay
7,21.874724408728667
142,21.87472439199564
205,21.87472441318833
268,21.874724396892454
393,0.0
396,0.0
399,0.0
402,0.0
403,0.0
417,0.0
492,0.0
1,WINTER DESIGN DAY IN (MID) UK HVAC Sizing Pass 1,  53.35,  -2.28,   0.00,  69.00
2,1, 1,15, 0, 1, 0.00,60.00,WinterDesignDay
7,22.218954442290794
142,16.781207299329775
205,16.781207299329775
268,22.218954442290794
393,604.841950113452
396,228.2549378900904
399,228.2549378900904
402,604.841950113452
403,1568.6463936464058
417,448.18468389897316
492,108.37269968991146
2,1, 1,15, 0, 2, 0.00,60.00,WinterDesignDay
7,22.218954442291334
142,16.78120729933043
205,16.78120729933043
268,22.218954442291334
393,604.8419501134405
396,228.25493789008578
399,228.25493789008578
402,604.8419501134405
403,1568.6463936464058
417,448.18468389897316
492,108.37269968991146
2,1, 1,15, 0, 3, 0.00,60.00,WinterDesignDay
7,22.218954442291814
142,16.781207299331008
205,16.781207299331008
268,22.218954442291814
393,604.8419501134313
396,228.2549378900835
399,228.2549378900835
402,604.8419501134313
403,1568.6463936464058
417,448.18468389897316
492,108.37269968991146
2,1, 1,15, 0, 4, 0.00,60.00,WinterDesignDay
7,22.218954442292247
142,16.78120729933152
205,16.78120729933152
268,22.218954442292247
393,604.8419501134244
396,228.2549378900789
399,228.2549378900789
402,604.8419501134244
403,1568.6463936464058
417,448.18468389897316
492,108.37269968991146
2,1, 1,15, 0, 5, 0.00,60.00,WinterDesignDay
7,22.218954442292617
142,16.781207299331967
205,16.781207299331967
268,22.218954442292617
393,604.8419501134152
396,228.25493789007436
399,228.25493789007436
402,604.8419501134152
403,1568.6463936463315
417,448.1846838989519
492,108.37269968991146
2,1, 1,15, 0, 6, 0.00,60.00,WinterDesignDay
7,22.218954442292947
142,16.781207299332372
205,16.781207299332372
268,22.218954442292947
393,604.8419501134106
396,228.25493789007436
399,228.25493789007436
402,604.8419501134106
403,1568.6463936463315
417,448.1846838989519
492,108.37269968991146
2,1, 1,15, 0, 7, 0.00,60.00,WinterDesignDay
7,22.21895444229325
142,16.78120729933273
205,16.78120729933273
268,22.21895444229325
393,604.8419501134038
396,228.25493789007206
399,228.25493789007206
402,604.8419501134038
403,1568.6463936463315
417,448.1846838989519
492,108.37269968991146
2,1, 1,15, 0, 8, 0.00,60.00,WinterDesignDay
7,22.218954442293512
142,16.781207299333047
205,16.781207299333047
268,22.218954442293512
393,604.8419501134015
396,228.25493789006975
399,228.25493789006975
402,604.8419501134015
403,1568.6463936463315
417,448.1846838989519
492,108.37269968991146
2,1, 1,15, 0, 9, 0.00,60.00,WinterDesignDay
7,22.21895444229372
142,16.78120729933333
205,16.78120729933333
268,22.21895444229372
393,604.8419501133924
396,228.25493789006745
399,228.25493789006745
402,604.8419501133924
403,1568.6463936464058
417,448.18468389897316
492,108.37269968991146
2,1, 1,15, 0,10, 0.00,60.00,WinterDesignDay
7,22.218954442293935
142,16.781207299333566
205,16.781207299333566
268,22.218954442293935
393,604.8419501133924
396,228.25493789006515
399,228.25493789006515
402,604.8419501133924
403,1568.6463936464058
417,448.18468389897316
492,108.37269968991146
2,1, 1,15, 0,11, 0.00,60.00,WinterDesignDay
7,22.218954442294123
142,16.781207299333783
205,16.781207299333783
268,22.218954442294123
393,604.8419501133877
396,228.25493789006515
399,228.25493789006515
402,604.8419501133877
403,1568.6463936464058
417,448.18468389897316
492,108.37269968991146
2,1, 1,15, 0,12, 0.00,60.00,WinterDesignDay
7,22.21895444229427
142,16.781207299333985
205,16.781207299333985
268,22.21895444229427
393,604.8419501133832
396,228.25493789006515
399,228.25493789006515
402,604.8419501133832
403,1568.6463936464058
417,448.18468389897316
492,108.37269968991146
2,1, 1,15, 0,13, 0.00,60.00,WinterDesignDay
7,22.21895444229442
142,16.781207299334167
205,16.781207299334167
268,22.21895444229442
393,604.8419501133832
396,228.25493789006515
399,228.25493789006515
402,604.8419501133832
403,1568.6463936464058
417,448.18468389897316
492,108.37269968991146
2,1, 1,15, 0,14, 0.00,60.00,WinterDesignDay
7,22.218954442294567
142,16.78120729933432
205,16.78120729933432
268,22.218954442294567
393,604.8419501133832
396,228.25493789006285
399,228.25493789006285
402,604.8419501133832
403,1568.6463936464058
417,448.18468389897316
492,108.37269968991146
2,1, 1,15, 0,15, 0.00,60.00,WinterDesignDay
7,22.218954442294667
142,16.781207299334447
205,16.781207299334447
268,22.218954442294667
393,604.8419501133762
396,228.25493789006057
399,228.25493789006057
402,604.8419501133762
403,1568.6463936464058
417,448.18468389897316
492,108.37269968991146
2,1, 1,15, 0,16, 0.00,60.00,WinterDesignDay
7,22.218954442294756
142,16.78120729933457
205,16.78120729933457
268,22.218954442294756
393,604.841950113374
396,228.25493789006057
399,228.25493789006057
402,604.841950113374
403,1568.6463936464058
417,448.18468389897316
492,108.37269968991146
2,1, 1,15, 0,17, 0.00,60.00,WinterDesignDay
7,22.21895444229484
142,16.78120729933468
205,16.78120729933468
268,22.21895444229484
393,604.841950113374
396,228.25493789006057
399,228.25493789006057
402,604.841950113374
403,1568.6463936464058
417,448.18468389897316
492,108.37269968991146
2,1, 1,15, 0,18, 0.00,60.00,WinterDesignDay
7,22.218954442294926
142,16.781207299334785
205,16.781207299334785
268,22.218954442294926
393,604.841950113374
396,228.25493789006057
399,228.25493789006057
402,604.841950113374
403,1568.6463936464058
417,448.18468389897316
492,108.37269968991146
2,1, 1,15, 0,19, 0.00,60.00,WinterDesignDay
7,22.218954442295015
142,16.781207299334845
205,16.781207299334845
268,22.218954442295015
393,604.841950113374
396,228.254937890056
399,228.254937890056
402,604.841950113374
403,1568.6463936464058
417,448.18468389897316
492,108.37269968991146
2,1, 1,15, 0,20, 0.00,60.00,WinterDesignDay
7,22.218954442295075
142,16.7812072993349
205,16.7812072993349
268,22.218954442295075
393,604.8419501133717
396,228.254937890056
399,228.254937890056
402,604.8419501133717
403,1568.6463936464058
417,448.18468389897316
492,108.37269968991146
2,1, 1,15, 0,21, 0.00,60.00,WinterDesignDay
7,22.218954442295114
142,16.78120729933496
205,16.78120729933496
268,22.218954442295114
393,604.8419501133694
396,228.254937890056
399,228.254937890056
402,604.8419501133694
403,1568.6463936464058
417,448.18468389897316
492,108.37269968991146
2,1, 1,15, 0,22, 0.00,60.00,WinterDesignDay
7,22.218954442295132
142,16.781207299335016
205,16.781207299335016
268,22.218954442295132
393,604.8419501133649
396,228.254937890056
399,228.254937890056
402,604.8419501133649
403,1568.6463936464058
417,448.18468389897316
492,108.37269968991146
2,1, 1,15, 0,23, 0.00,60.00,WinterDesignDay
7,22.218954442295157
142,16.781207299335065
205,16.781207299335065
268,22.218954442295157
393,604.8419501133649
396,228.254937890056
399,228.254937890056
402,604.8419501133649
403,1568.6463936464058
417,448.18468389897316
492,108.37269968991146
2,1, 1,15, 0,24, 0.00,60.00,WinterDesignDay
7,22.21895444229519
142,16.7812072993351
205,16.7812072993351
268,22.21895444229519
393,604.8419501133649
396,228.254937890056
399,228.254937890056
402,604.8419501133649
403,1568.6463936464058
417,448.18468389897316
492,108.37269968991146
1,SUMMER DESIGN DAY IN SALFORD ENERGY HOUSE 1.0 (01-01:31-12) JUN,  53.35,  -2.28,   0.00,  69.00
2,1, 6,15, 1, 1, 0.00,60.00,SummerDesignDay
7,21.39810832841874
142,21.398108320638656
205,21.398108330529585
268,21.3981083228946
393,0.0
396,0.0
399,0.0
402,0.0
403,0.0
417,0.0
492,0.0
2,1, 6,15, 1, 2, 0.00,60.00,SummerDesignDay
7,20.972257403851952
142,20.935620739485344
205,20.935620744105385
268,20.972257401274025
393,12.177756829432655
396,0.0
399,0.0
402,12.177756830252466
403,139.9452463886157
417,39.98435611103305
492,27.09378486855292
2,1, 6,15, 1, 3, 0.00,60.00,SummerDesignDay
7,21.06055969808922
142,20.532435221158742
205,20.532435223318377
268,21.060559697008266
393,64.63432295530234
396,0.0
399,0.0
402,64.63432295785933
403,104.13283632088344
417,29.75223894882384
492,27.108165871296162
2,1, 6,15, 1, 4, 0.00,60.00,SummerDesignDay
7,21.173538616578846
142,20.261641649365647
205,20.261641650376127
268,21.17353861617129
393,79.51296049446685
396,0.0
399,0.0
402,79.5129604957047
403,92.21726946491647
417,26.34779127569042
492,27.11203943878452
2,1, 6,15, 1, 5, 0.00,60.00,SummerDesignDay
7,21.235556080959615
142,20.092350552159697
205,20.092350539012727
268,21.235556143464414
393,89.67678530589052
396,0.0
399,0.0
402,89.67678522546831
403,172.2406365136141
417,49.21161043246117
492,54.20142433690422
2,1, 6,15, 1, 6, 0.00,60.00,SummerDesignDay
7,21.273548039510196
142,20.000176473005858
205,20.00017638135897
268,21.273548299320673
393,93.17121970555421
396,0.0
399,0.0
402,93.17121912276076
403,137.55717336811477
417,39.30204953374707
492,54.20224839032298
2,1, 6,15, 1, 7, 0.00,60.00,SummerDesignDay
7,21.28945926461249
142,20.003285082051974
205,20.00328485695801
268,21.289459670288174
393,87.10113257395695
396,0.0
399,0.0
402,87.10113160190454
403,65.6590512841165
417,18.759728938319
492,27.11393994447925
2,1, 6,15, 1, 8, 0.00,60.00,SummerDesignDay
7,21.26970082366506
142,20.16441053647376
205,20.164410157106378
268,21.269701273079168
393,63.31178507730807
396,0.0
399,0.0
402,63.31178423684024
403,98.23214836600968
417,28.066328104574193
492,27.107519616758324
2,1, 6,15, 1, 9, 0.00,60.00,SummerDesignDay
7,21.194728947634
142,20.508238675804304
205,20.508238183324238
268,21.194729351332843
393,24.83720133227393
396,0.0
399,0.0
402,24.83720101573147
403,0.0
417,0.0
492,0.007622138007629818
2,1, 6,15, 1,10, 0.00,60.00,SummerDesignDay
7,21.155978636654094
142,20.954240218615208
205,20.95423966108421
268,21.155978922805247
393,0.3451057114360528
396,0.0
399,0.0
402,0.3451057076482263
403,0.0
417,0.0
492,0.00010567616432345703
2,1, 6,15, 1,11, 0.00,60.00,SummerDesignDay
7,21.471853672540618
142,21.439195204519187
205,21.439194644502646
268,21.471853769420804
393,0.0
396,0.0
399,0.0
402,0.0
403,0.0
417,0.0
492,0.0
2,1, 6,15, 1,12, 0.00,60.00,SummerDesignDay
7,21.97252757478117
142,21.966859859507245
205,21.966859367124034
268,21.972527474958746
393,0.0
396,0.0
399,0.0
402,0.0
403,0.0
417,0.0
492,0.0
2,1, 6,15, 1,13, 0.00,60.00,SummerDesignDay
7,22.51438243593502
142,22.513407615949344
205,22.513407246809965
268,22.514382154790106
393,0.0
396,0.0
399,0.0
402,0.0
403,0.0
417,0.0
492,0.0
2,1, 6,15, 1,14, 0.00,60.00,SummerDesignDay
7,23.04977493797351
142,23.049607318467274
205,23.04960711380643
268,23.049774507726266
393,0.0
396,0.0
399,0.0
402,0.0
403,0.0
417,0.0
492,0.0
2,1, 6,15, 1,15, 0.00,60.00,SummerDesignDay
7,23.522078927454892
142,23.522049794103808
205,23.522049778199126
268,23.52207839363921
393,0.0
396,0.0
399,0.0
402,0.0
403,0.0
417,0.0
492,0.0
2,1, 6,15, 1,16, 0.00,60.00,SummerDesignDay
7,23.862315282523646
142,23.862309889624385
205,23.862310070144368
268,23.862314693486837
393,0.0
396,0.0
399,0.0
402,0.0
403,0.0
417,0.0
492,0.0
2,1, 6,15, 1,17, 0.00,60.00,SummerDesignDay
7,24.031210776482517
142,24.03120941594866
205,24.03120977252225
268,24.031210199783242
393,0.0
396,0.0
399,0.0
402,0.0
403,0.0
417,0.0
492,0.0
2,1, 6,15, 1,18, 0.00,60.00,SummerDesignDay
7,24.041030614268205
142,24.041029945243118
205,24.04103042800142
268,24.041030108661296
393,0.0
396,0.0
399,0.0
402,0.0
403,0.0
417,0.0
492,0.0
2,1, 6,15, 1,19, 0.00,60.00,SummerDesignDay
7,23.898494776319104
142,23.898494275151013
205,23.89849478002176
268,23.89849438571233
393,0.0
396,0.0
399,0.0
402,0.0
403,0.0
417,0.0
492,0.0
2,1, 6,15, 1,20, 0.00,60.00,SummerDesignDay
7,23.606012478925827
142,23.606012135017675
205,23.606012544466815
268,23.606012236354776
393,0.0
396,0.0
399,0.0
402,0.0
403,0.0
417,0.0
492,0.0
2,1, 6,15, 1,21, 0.00,60.00,SummerDesignDay
7,23.232246107471653
142,23.23224593786045
205,23.232246148151006
268,23.232245990473217
393,0.0
396,0.0
399,0.0
402,0.0
403,0.0
417,0.0
492,0.0
2,1, 6,15, 1,22, 0.00,60.00,SummerDesignDay
7,22.806942381239054
142,22.806942303254814
205,22.80694240079065
268,22.806942326776696
393,0.0
396,0.0
399,0.0
402,0.0
403,0.0
417,0.0
492,0.0
2,1, 6,15, 1,23, 0.00,60.00,SummerDesignDay
7,22.346475116661612
142,22.346475080589578
205,22.346475126035067
268,22.34647509128049
393,0.0
396,0.0
399,0.0
402,0.0
403,0.0
417,0.0
492,0.0
2,1, 6,15, 1,24, 0.00,60.00,SummerDesignDay
7,21.874724408728667
142,21.87472439199564
205,21.87472441318833
268,21.874724396892454
393,0.0
396,0.0
399,0.0
402,0.0
403,0.0
417,0.0
492,0.0
1,WINTER DESIGN DAY IN (MID) UK,  53.35,  -2.28,   0.00,  69.00
2,1, 1,15, 0, 1, 0.00,60.00,WinterDesignDay
7,22.218954442290794
142,16.781207299329775
205,16.781207299329775
268,22.218954442290794
393,604.841950113452
396,228.2549378900904
399,228.2549378900904
402,604.841950113452
403,1568.6463936464058
417,448.18468389897316
492,108.37269968991146
2,1, 1,15, 0, 2, 0.00,60.00,WinterDesignDay
7,22.218954442291334
142,16.78120729933043
205,16.78120729933043
268,22.218954442291334
393,604.8419501134405
396,228.25493789008578
399,228.25493789008578
402,604.8419501134405
403,1568.6463936464058
417,448.18468389897316
492,108.37269968991146
2,1, 1,15, 0, 3, 0.00,60.00,WinterDesignDay
7,22.218954442291814
142,16.781207299331008
205,16.781207299331008
268,22.218954442291814
393,604.8419501134313
396,228.2549378900835
399,228.2549378900835
402,604.8419501134313
403,1568.6463936464058
417,448.18468389897316
492,108.37269968991146
2,1, 1,15, 0, 4, 0.00,60.00,WinterDesignDay
7,22.218954442292247
142,16.78120729933152
205,16.78120729933152
268,22.218954442292247
393,604.8419501134244
396,228.2549378900789
399,228.2549378900789
402,604.8419501134244
403,1568.6463936464058
417,448.18468389897316
492,108.37269968991146
2,1, 1,15, 0, 5, 0.00,60.00,WinterDesignDay
7,22.218954442292617
142,16.781207299331967
205,16.781207299331967
268,22.218954442292617
393,604.8419501134152
396,228.25493789007436
399,228.25493789007436
402,604.8419501134152
403,1568.6463936463315
417,448.1846838989519
492,108.37269968991146
2,1, 1,15, 0, 6, 0.00,60.00,WinterDesignDay
7,22.218954442292947
142,16.781207299332372
205,16.781207299332372
268,22.218954442292947
393,604.8419501134106
396,228.25493789007436
399,228.25493789007436
402,604.8419501134106
403,1568.6463936463315
417,448.1846838989519
492,108.37269968991146
2,1, 1,15, 0, 7, 0.00,60.00,WinterDesignDay
7,22.21895444229325
142,16.78120729933273
205,16.78120729933273
268,22.21895444229325
393,604.8419501134038
396,228.25493789007206
399,228.25493789007206
402,604.8419501134038
403,1568.6463936463315
417,448.1846838989519
492,108.37269968991146
2,1, 1,15, 0, 8, 0.00,60.00,WinterDesignDay
7,22.218954442293512
142,16.781207299333047
205,16.781207299333047
268,22.218954442293512
393,604.8419501134015
396,228.25493789006975
399,228.25493789006975
402,604.8419501134015
403,1568.6463936463315
417,448.1846838989519
492,108.37269968991146
2,1, 1,15, 0, 9, 0.00,60.00,WinterDesignDay
7,22.21895444229372
142,16.78120729933333
205,16.78120729933333
268,22.21895444229372
393,604.8419501133924
396,228.25493789006745
399,228.25493789006745
402,604.8419501133924
403,1568.6463936464058
417,448.18468389897316
492,108.37269968991146
2,1, 1,15, 0,10, 0.00,60.00,WinterDesignDay
7,22.218954442293935
142,16.781207299333566
205,16.781207299333566
268,22.218954442293935
393,604.8419501133924
396,228.25493789006515
399,228.25493789006515
402,604.8419501133924
403,1568.6463936464058
417,448.18468389897316
492,108.37269968991146
2,1, 1,15, 0,11, 0.00,60.00,WinterDesignDay
7,22.218954442294123
142,16.781207299333783
205,16.781207299333783
268,22.218954442294123
393,604.8419501133877
396,228.25493789006515
399,228.25493789006515
402,604.8419501133877
403,1568.6463936464058
417,448.18468389897316
492,108.37269968991146
2,1, 1,15, 0,12, 0.00,60.00,WinterDesignDay
7,22.21895444229427
142,16.781207299333985
205,16.781207299333985
268,22.21895444229427
393,604.8419501133832
396,228.25493789006515
399,228.25493789006515
402,604.8419501133832
403,1568.6463936464058
417,448.18468389897316
492,108.37269968991146
2,1, 1,15, 0,13, 0.00,60.00,WinterDesignDay
7,22.21895444229442
142,16.781207299334167
205,16.781207299334167
268,22.21895444229442
393,604.8419501133832
396,228.25493789006515
399,228.25493789006515
402,604.8419501133832
403,1568.6463936464058
417,448.18468389897316
492,108.37269968991146
2,1, 1,15, 0,14, 0.00,60.00,WinterDesignDay
7,22.218954442294567
142,16.78120729933432
205,16.78120729933432
268,22.218954442294567
393,604.8419501133832
396,228.25493789006285
399,228.25493789006285
402,604.8419501133832
403,1568.6463936464058
417,448.18468389897316
492,108.37269968991146
2,1, 1,15, 0,15, 0.00,60.00,WinterDesignDay
7,22.218954442294667
142,16.781207299334447
205,16.781207299334447
268,22.218954442294667
393,604.8419501133762
396,228.25493789006057
399,228.25493789006057
402,604.8419501133762
403,1568.6463936464058
417,448.18468389897316
492,108.37269968991146
2,1, 1,15, 0,16, 0.00,60.00,WinterDesignDay
7,22.218954442294756
142,16.78120729933457
205,16.78120729933457
268,22.218954442294756
393,604.841950113374
396,228.25493789006057
399,228.25493789006057
402,604.841950113374
403,1568.6463936464058
417,448.18468389897316
492,108.37269968991146
2,1, 1,15, 0,17, 0.00,60.00,WinterDesignDay
7,22.21895444229484
142,16.78120729933468
205,16.78120729933468
268,22.21895444229484
393,604.841950113374
396,228.25493789006057
399,228.25493789006057
402,604.841950113374
403,1568.6463936464058
417,448.18468389897316
492,108.37269968991146
2,1, 1,15, 0,18, 0.00,60.00,WinterDesignDay
7,22.218954442294926
142,16.781207299334785
205,16.781207299334785
268,22.218954442294926
393,604.841950113374
396,228.25493789006057
399,228.25493789006057
402,604.841950113374
403,1568.6463936464058
417,448.18468389897316
492,108.37269968991146
2,1, 1,15, 0,19, 0.00,60.00,WinterDesignDay
7,22.218954442295015
142,16.781207299334845
205,16.781207299334845
268,22.218954442295015
393,604.841950113374
396,228.254937890056
399,228.254937890056
402,604.841950113374
403,1568.6463936464058
417,448.18468389897316
492,108.37269968991146
2,1, 1,15, 0,20, 0.00,60.00,WinterDesignDay
7,22.218954442295075
142,16.7812072993349
205,16.7812072993349
268,22.218954442295075
393,604.8419501133717
396,228.254937890056
399,228.254937890056
402,604.8419501133717
403,1568.6463936464058
417,448.18468389897316
492,108.37269968991146
2,1, 1,15, 0,21, 0.00,60.00,WinterDesignDay
7,22.218954442295114
142,16.78120729933496
205,16.78120729933496
268,22.218954442295114
393,604.8419501133694
396,228.254937890056
399,228.254937890056
402,604.8419501133694
403,1568.6463936464058
417,448.18468389897316
492,108.37269968991146
2,1, 1,15, 0,22, 0.00,60.00,WinterDesignDay
7,22.218954442295132
142,16.781207299335016
205,16.781207299335016
268,22.218954442295132
393,604.8419501133649
396,228.254937890056
399,228.254937890056
402,604.8419501133649
403,1568.6463936464058
417,448.18468389897316
492,108.37269968991146
2,1, 1,15, 0,23, 0.00,60.00,WinterDesignDay
7,22.218954442295157
142,16.781207299335065
205,16.781207299335065
268,22.218954442295157
393,604.8419501133649
396,228.254937890056
399,228.254937890056
402,604.8419501133649
403,1568.6463936464058
417,448.18468389897316
492,108.37269968991146
2,1, 1,15, 0,24, 0.00,60.00,WinterDesignDay
7,22.21895444229519
142,16.7812072993351
205,16.7812072993351
268,22.21895444229519
393,604.8419501133649
396,228.254937890056
399,228.254937890056
402,604.8419501133649
403,1568.6463936464058
417,448.18468389897316
492,108.37269968991146
End of Data
 Number of Records Written=        1056
