Program Version,EnergyPlus, Version 24.2.0-94a887817b, YMD=2026.04.28 12:48
1,5,Environment Title[],Latitude[deg],Longitude[deg],Time Zone[],Elevation[m]
2,8,Day of Simulation[],Month[],Day of Month[],DST Indicator[1=yes 0=no],Hour[],StartMinute[],EndMinute[],DayType
3,5,Cumulative Day of Simulation[],Month[],Day of Month[],DST Indicator[1=yes 0=no],DayType  ! When Daily Report Variables Requested
4,2,Cumulative Days of Simulation[],Month[]  ! When Monthly Report Variables Requested
5,1,Cumulative Days of Simulation[] ! When Run Period Report Variables Requested
6,1,Calendar Year of Simulation[] ! When Annual Report Variables Requested
7,1,Environment,Site Outdoor Air Drybulb Temperature [C] !Hourly
8,1,Z1,Zone Air Temperature [C] !Hourly
143,1,Z2,Zone Air Temperature [C] !Hourly
206,1,Z3,Zone Air Temperature [C] !Hourly
269,1,Z4,Zone Air Temperature [C] !Hourly
332,1,Z5,Zone Air Temperature [C] !Hourly
395,1,Z6,Zone Air Temperature [C] !Hourly
458,1,Z7,Zone Air Temperature [C] !Hourly
521,1,Z8,Zone Air Temperature [C] !Hourly
584,1,HOT WATER LOOP,Plant Supply Side Outlet Temperature [C] !Hourly
647,1,Z1 RADIATOR,Baseboard Total Heating Rate [W] !Hourly
648,1,Z1 RADIATOR,Baseboard Hot Water Mass Flow Rate [kg/s] !Hourly
651,1,Z2 RADIATOR,Baseboard Total Heating Rate [W] !Hourly
652,1,Z2 RADIATOR,Baseboard Hot Water Mass Flow Rate [kg/s] !Hourly
655,1,Z3 RADIATOR,Baseboard Total Heating Rate [W] !Hourly
656,1,Z3 RADIATOR,Baseboard Hot Water Mass Flow Rate [kg/s] !Hourly
659,1,Z4 RADIATOR,Baseboard Total Heating Rate [W] !Hourly
660,1,Z4 RADIATOR,Baseboard Hot Water Mass Flow Rate [kg/s] !Hourly
663,1,Z5 RADIATOR,Baseboard Total Heating Rate [W] !Hourly
664,1,Z5 RADIATOR,Baseboard Hot Water Mass Flow Rate [kg/s] !Hourly
667,1,Z6 RADIATOR,Baseboard Total Heating Rate [W] !Hourly
668,1,Z6 RADIATOR,Baseboard Hot Water Mass Flow Rate [kg/s] !Hourly
671,1,Z7 RADIATOR,Baseboard Total Heating Rate [W] !Hourly
672,1,Z7 RADIATOR,Baseboard Hot Water Mass Flow Rate [kg/s] !Hourly
675,1,Z8 RADIATOR,Baseboard Total Heating Rate [W] !Hourly
676,1,Z8 RADIATOR,Baseboard Hot Water Mass Flow Rate [kg/s] !Hourly
677,1,HEAT PUMP,Heat Pump Load Side Heat Transfer Rate [W] !Hourly
691,1,HEAT PUMP,Heat Pump Load Side Inlet Temperature [C] !Hourly
692,1,HEAT PUMP,Heat Pump Load Side Outlet Temperature [C] !Hourly
693,1,HEAT PUMP,Heat Pump Electricity Rate [W] !Hourly
768,1,SUPPLY PUMP,Pump Electricity Rate [W] !Hourly
769,1,SUPPLY PUMP,Pump Fluid Heat Gain Rate [W] !Hourly
770,1,SUPPLY PUMP,Pump Mass Flow Rate [kg/s] !Hourly
798,1,Baseboard Total Heating Rate All Zones,PythonPlugin:OutputVariable [W] !Hourly
End of Data Dictionary
1,WINTER DESIGN DAY IN (MID) UK,  53.35,  -2.28,   0.00,  69.00
2,1, 1,15, 0, 1, 0.00,60.00,WinterDesignDay
7,-3.0
8,21.000098991661638
143,21.000098991661638
206,18.00026808902033
269,18.00026808902033
332,19.25382776153055
395,19.25382776153055
458,17.999841801093034
521,17.999841801093034
584,38.12146231312225
647,366.4715897827602
648,0.029496
651,366.4715897827602
652,0.029496
655,161.58811430787023
656,0.002022629150390625
659,161.58811430787023
660,0.002022629150390625
663,403.84938904441987
664,0.029496
667,403.84938904441987
668,0.029496
671,359.33232844883133
672,0.009735984375
675,359.33232844883133
676,0.009735984375
677,2580.314756897573
691,33.75895353581754
692,38.50790085979823
693,815.9276560958067
768,2.134477596654785
769,2.134477596654785
770,0.14150122705078122
798,1056.119408181261
2,1, 1,15, 0, 2, 0.00,60.00,WinterDesignDay
7,-3.0
8,21.000091192308304
143,21.000091192308304
206,18.00009864686413
269,18.00009864686413
332,19.25381913284702
395,19.25381913284702
458,18.000077330382208
521,18.000077330382208
584,38.12144657911413
647,366.4714384076917
648,0.029496
651,366.4714384076917
652,0.029496
655,161.5269731154802
656,0.00202172900390625
659,161.5269731154802
660,0.00202172900390625
663,403.84927744213167
664,0.029496
667,403.84927744213167
668,0.029496
671,359.4551922458039
672,0.00975038671875
675,359.4551922458039
676,0.00975038671875
677,2580.514226041604
691,33.759433931482455
692,38.508748368992705
693,816.0106355248706
768,2.1348852742993136
769,2.1348852742993136
770,0.1415282314453125
798,1055.9968230463437
2,1, 1,15, 0, 3, 0.00,60.00,WinterDesignDay
7,-3.0
8,21.000085117899086
143,21.000085117899086
206,18.000179770950783
269,18.000179770950783
332,19.25381020264517
395,19.25381020264517
458,17.999866474164413
521,17.999866474164413
584,38.12143209189314
647,366.4712850214422
648,0.029496
651,366.4712850214422
652,0.029496
655,161.58834803987102
656,0.0020226291503906255
659,161.58834803987102
660,0.0020226291503906255
663,403.84910413053746
664,0.029496
667,403.84910413053746
668,0.029496
671,359.33341187862584
672,0.009735984375
675,359.33341187862584
676,0.009735984375
677,2580.3061905072973
691,33.75893824522541
692,38.50786980316978
693,815.9241870753185
768,2.1344775858438334
769,2.1344775858438334
770,0.14150122705078125
798,1056.1192661226264
2,1, 1,15, 0, 4, 0.00,60.00,WinterDesignDay
7,-3.0
8,21.000075111665968
143,21.000075111665968
206,18.000037258910112
269,18.000037258910112
332,19.253804745237286
395,19.253804745237286
458,18.00003736388858
521,18.00003736388858
584,38.121418692717846
647,366.47115219705455
648,0.029496
651,366.47115219705455
652,0.029496
655,161.52793230107534
656,0.00202172900390625
659,161.52793230107534
660,0.00202172900390625
663,403.84895518145214
664,0.029496
667,403.84895518145214
668,0.029496
671,359.4567445576177
672,0.00975038671875
675,359.4567445576177
676,0.00975038671875
677,2580.5182049305167
691,33.759398736950175
692,38.50872049741736
693,816.0112592807305
768,2.1348852505200018
769,2.1348852505200018
770,0.14152823144531246
798,1055.99816899626
2,1, 1,15, 0, 5, 0.00,60.00,WinterDesignDay
7,-3.0
8,21.00006704033476
143,21.00006704033476
206,18.00014372595247
269,18.00014372595247
332,19.253801374888493
395,19.253801374888493
458,18.00014151741281
521,18.00014151741281
584,38.12140680975202
647,366.4711216561187
648,0.029496
651,366.4711216561187
652,0.029496
655,161.58850066752154
656,0.0020226291503906255
659,161.58850066752154
660,0.0020226291503906255
663,403.8488931035434
664,0.029496
667,403.8488931035434
668,0.029496
671,359.4488937143062
672,0.00975038671875
675,359.4488937143062
676,0.00975038671875
677,2580.6016316179903
691,33.75930140560726
692,38.50877670894869
693,816.0389694425618
768,2.1349123401448895
769,2.1349123401448895
770,0.14153003173828124
798,1056.1192446472805
2,1, 1,15, 0, 6, 0.00,60.00,WinterDesignDay
7,-3.0
8,21.0000614219826
143,21.0000614219826
206,18.00026624949568
269,18.00026624949568
332,19.253795519148717
395,19.253795519148717
458,17.99965225772965
521,17.99965225772965
584,38.121396286642835
647,366.4710093178936
648,0.029496
651,366.4710093178936
652,0.029496
655,161.58759861451284
656,0.002022629150390625
659,161.58759861451284
660,0.002022629150390625
663,403.84866176435736
664,0.029496
667,403.84866176435736
668,0.029496
671,359.3381271571634
672,0.009735984375
675,359.3381271571634
676,0.009735984375
677,2580.355935955533
691,33.75881778462461
692,38.50784089671471
693,815.9392591491367
768,2.1344775034793604
769,2.1344775034793604
770,0.14150122705078122
798,1056.117215864813
2,1, 1,15, 0, 7, 0.00,60.00,WinterDesignDay
7,-3.0
8,21.00005688713945
143,21.00005688713945
206,18.000091608740085
269,18.000091608740085
332,19.25378558084236
395,19.25378558084236
458,18.00008527720718
521,18.00008527720718
584,38.12138650494796
647,366.4708975831178
648,0.029496
651,366.4708975831178
652,0.029496
655,161.5265347552839
656,0.00202172900390625
659,161.5265347552839
660,0.00202172900390625
663,403.8486808091641
664,0.029496
667,403.8486808091641
668,0.029496
671,359.32501573875845
672,0.009735984375
675,359.32501573875845
676,0.009735984375
677,2580.1521447441
691,33.75909776421324
692,38.507745808213066
693,815.872567251994
768,2.134450538751797
769,2.134450538751797
770,0.1414994267578125
798,1055.9948646768034
2,1, 1,15, 0, 8, 0.00,60.00,WinterDesignDay
7,-3.0
8,21.0000540442767
143,21.0000540442767
206,18.00018009174737
269,18.00018009174737
332,19.2537866825168
395,19.2537866825168
458,17.999669584635324
521,17.999669584635324
584,38.121377446253405
647,366.4707918233155
648,0.029496
651,366.4707918233155
652,0.029496
655,161.58792059132216
656,0.0020226291503906255
659,161.58792059132216
660,0.0020226291503906255
663,403.8484612893028
664,0.029496
667,403.8484612893028
668,0.029496
671,359.33699211558195
672,0.009735984375
675,359.33699211558195
676,0.009735984375
677,2580.3422224252104
691,33.75882211344507
692,38.50781998643093
693,815.9344303405949
768,2.134477506465145
769,2.134477506465145
770,0.14150122705078122
798,1056.1174248292753
2,1, 1,15, 0, 9, 0.00,60.00,WinterDesignDay
7,-3.0
8,21.000050707114536
143,21.000050707114536
206,18.000281157706958
269,18.000281157706958
332,19.253777113605462
395,19.253777113605462
458,18.000472264901454
521,18.000472264901454
584,38.12136891024333
647,366.4706482120762
648,0.029496
651,366.4706482120762
652,0.029496
655,161.58723661398025
656,0.002022629150390625
659,161.58723661398025
660,0.002022629150390625
663,403.8485280932614
664,0.029496
667,403.8485280932614
668,0.029496
671,359.57076712502885
672,0.0097647890625
675,359.57076712502885
676,0.0097647890625
677,2580.8865504378346
691,33.759670106267635
692,38.50966978922727
693,816.1500652755061
768,2.1353470979890967
769,2.1353470979890967
770,0.14155883642578124
798,1056.1157696521127
2,1, 1,15, 0,10, 0.00,60.00,WinterDesignDay
7,-3.0
8,21.000047195360853
143,21.000047195360853
206,18.00010937522936
269,18.00010937522936
332,19.253779290214492
395,19.253779290214492
458,17.999715810328127
521,17.999715810328127
584,38.12136083357679
647,366.4705715643107
648,0.029496
651,366.4705715643107
652,0.029496
655,161.5261976268878
656,0.00202172900390625
659,161.5261976268878
660,0.00202172900390625
663,403.8483343333528
664,0.029496
667,403.8483343333528
668,0.029496
671,359.3335810661076
672,0.009735984375
675,359.3335810661076
676,0.009735984375
677,2580.23210799014
691,33.758936254797355
692,38.5077314673712
693,815.8975325905427
768,2.1344504282567485
769,2.1344504282567485
770,0.14149942675781246
798,1055.9935383823972
2,1, 1,15, 0,11, 0.00,60.00,WinterDesignDay
7,-3.0
8,21.00004393053149
143,21.00004393053149
206,18.00012664519552
269,18.00012664519552
332,19.253768440637607
395,19.253768440637607
458,17.99984232493403
521,17.99984232493403
584,38.12135329322736
647,366.47045643660454
648,0.029496
651,366.47045643660454
652,0.029496
655,161.58884373652197
656,0.002022629150390625
659,161.58884373652197
660,0.002022629150390625
663,403.8483157778254
664,0.029496
667,403.8483157778254
668,0.029496
671,359.33217891927893
672,0.009735984375
675,359.33217891927893
676,0.009735984375
677,2580.301626827034
691,33.758867207444744
692,38.50779036615135
693,815.9208759185378
768,2.1344775370175055
769,2.1344775370175055
770,0.14150122705078122
798,1056.118600346253
2,1, 1,15, 0,12, 0.00,60.00,WinterDesignDay
7,-3.0
8,21.00003548805592
143,21.00003548805592
206,18.0000602874087
269,18.0000602874087
332,19.253769470591706
395,19.253769470591706
458,17.99988351540385
521,17.99988351540385
584,38.121346497178045
647,366.4704916794126
648,0.029496
651,366.4704916794126
652,0.029496
655,161.52649074068353
656,0.00202172900390625
659,161.52649074068353
660,0.00202172900390625
663,403.84820175357777
664,0.029496
667,403.84820175357777
668,0.029496
671,359.32907797587853
672,0.009735984375
675,359.32907797587853
676,0.009735984375
677,2580.19047747723
691,33.75899227397209
692,38.50771086755503
693,815.8838831391329
768,2.1344504667560864
769,2.1344504667560864
770,0.14149942675781246
798,1055.9939648401921
2,1, 1,15, 0,13, 0.00,60.00,WinterDesignDay
7,-3.0
8,21.00003285206786
143,21.00003285206786
206,18.00015125683894
269,18.00015125683894
332,19.25376214266775
395,19.25376214266775
458,18.000029176638055
521,18.000029176638055
584,38.12134083348018
647,366.47045884426154
648,0.029496
651,366.47045884426154
652,0.029496
655,161.5878467298139
656,0.0020226291503906255
659,161.5878467298139
660,0.0020226291503906255
663,403.8481745008644
664,0.029496
667,403.8481745008644
668,0.029496
671,359.455825632905
672,0.00975038671875
675,359.455825632905
676,0.00975038671875
677,2580.612922262154
691,33.75921621039225
692,38.508712293630495
693,816.0410158410083
768,2.1349122817063213
769,2.1349122817063213
770,0.14153003173828124
798,1056.1166111481507
2,1, 1,15, 0,14, 0.00,60.00,WinterDesignDay
7,-3.0
8,21.000028675941614
143,21.000028675941614
206,18.000260159555715
269,18.000260159555715
332,19.25376061496579
395,19.25376061496579
458,18.000122425376347
521,18.000122425376347
584,38.12133572588329
647,366.47040984429617
648,0.029496
651,366.47040984429617
652,0.029496
655,161.58716899489295
656,0.002022629150390625
659,161.58716899489295
660,0.002022629150390625
663,403.8482508030878
664,0.029496
667,403.8482508030878
668,0.029496
671,359.4480039992039
672,0.00975038671875
675,359.4480039992039
676,0.00975038671875
677,2580.6054774946388
691,33.75922366766672
692,38.5087060491623
693,816.0385142339812
768,2.134912286842782
769,2.134912286842782
770,0.14153003173828124
798,1056.1151576783784
2,1, 1,15, 0,15, 0.00,60.00,WinterDesignDay
7,-3.0
8,21.000026574141465
143,21.000026574141465
206,18.000089245124478
269,18.000089245124478
332,19.253757068554936
395,19.253757068554936
458,17.999635587898382
521,17.999635587898382
584,38.121331150149864
647,366.4703813026792
648,0.029496
651,366.4703813026792
652,0.029496
655,161.52610149968436
656,0.00202172900390625
659,161.52610149968436
660,0.00202172900390625
663,403.8481006181155
664,0.029496
667,403.8481006181155
668,0.029496
671,359.33726931361383
672,0.009735984375
675,359.33726931361383
676,0.009735984375
677,2580.2393776201884
691,33.758894274632866
692,38.507702866617144
693,815.8991582061606
768,2.1344503994260156
769,2.1344503994260156
770,0.14149942675781246
798,1055.992965604727
2,1, 1,15, 0,16, 0.00,60.00,WinterDesignDay
7,-3.0
8,21.000024916928773
143,21.000024916928773
206,18.000162810804596
269,18.000162810804596
332,19.25374936475261
395,19.25374936475261
458,18.000069560568914
521,18.000069560568914
584,38.12132690712535
647,366.47033054576593
648,0.029496
651,366.47033054576593
652,0.029496
655,161.58763343698587
656,0.0020226291503906255
659,161.58763343698587
660,0.0020226291503906255
663,403.8481871103481
664,0.029496
667,403.8481871103481
668,0.029496
671,359.32423997459034
672,0.009735984375
675,359.32423997459034
676,0.009735984375
677,2580.2497101266495
691,33.75892854797047
692,38.507756156444415
693,815.9036530956796
768,2.13447757918482
769,2.13447757918482
770,0.14150122705078125
798,1056.1159279655035
2,1, 1,15, 0,17, 0.00,60.00,WinterDesignDay
7,-3.0
8,21.000022308565523
143,21.000022308565523
206,18.000272986823507
269,18.000272986823507
332,19.253752679962012
395,19.253752679962012
458,18.000069074912
521,18.000069074912
584,38.121323053069766
647,366.4702829400185
648,0.029496
651,366.4702829400185
652,0.029496
655,161.58693717835519
656,0.002022629150390625
659,161.58693717835519
660,0.002022629150390625
663,403.84803390129395
664,0.029496
667,403.84803390129395
668,0.029496
671,359.4544128061792
672,0.00975038671875
675,359.4544128061792
676,0.00975038671875
677,2580.617844058015
691,33.75919028495846
692,38.50869542652929
693,816.0421843699903
768,2.134912263774922
769,2.134912263774922
770,0.14153003173828121
798,1056.1144402367474
2,1, 1,15, 0,18, 0.00,60.00,WinterDesignDay
7,-3.0
8,21.00002115880318
143,21.00002115880318
206,18.00009608696512
269,18.00009608696512
332,19.253750811434085
395,19.253750811434085
458,17.999687251017278
521,17.999687251017278
584,38.12131944171503
647,366.4702438655325
648,0.029496
651,366.4702438655325
652,0.029496
655,161.52596192294962
656,0.00202172900390625
659,161.52596192294962
660,0.00202172900390625
663,403.84805302273173
664,0.029496
667,403.84805302273173
668,0.029496
671,359.33591238847146
672,0.009735984375
675,359.33591238847146
676,0.009735984375
677,2580.23531317219
691,33.75889064172064
692,38.507691753280525
693,815.8975697092097
768,2.1344503961036962
769,2.1344503961036962
770,0.14149942675781252
798,1055.992411576964
2,1, 1,15, 0,19, 0.00,60.00,WinterDesignDay
7,-3.0
8,21.000020529438387
143,21.000020529438387
206,18.00016872155009
269,18.00016872155009
332,19.253744583727332
395,19.253744583727332
458,18.00005165516043
521,18.00005165516043
584,38.12131604295307
647,366.4701984107031
648,0.029496
651,366.4701984107031
652,0.029496
655,161.58749959600323
656,0.0020226291503906255
659,161.58749959600323
660,0.0020226291503906255
663,403.8481053981437
664,0.029496
667,403.8481053981437
668,0.029496
671,359.45169280862876
672,0.00975038671875
675,359.45169280862876
676,0.00975038671875
677,2580.6028810293988
691,33.7592085269155
692,38.508686129739566
693,816.0372329261484
768,2.1349122763353416
769,2.1349122763353416
770,0.14153003173828124
798,1056.1153960134127
2,1, 1,15, 0,20, 0.00,60.00,WinterDesignDay
7,-3.0
8,21.00001773238828
143,21.00001773238828
206,18.000272134626346
269,18.000272134626346
332,19.253744911376288
395,19.253744911376288
458,17.999884725349606
521,17.999884725349606
584,38.121312895299766
647,366.4701635754859
648,0.029496
651,366.4701635754859
652,0.029496
655,161.58685940204305
656,0.002022629150390625
659,161.58685940204305
660,0.002022629150390625
663,403.84800162656313
664,0.029496
667,403.84800162656313
668,0.029496
671,359.33194652459593
672,0.009735984375
675,359.33194652459593
676,0.009735984375
677,2580.3059714667843
691,33.75882013432981
692,38.50775128914047
693,815.9213134209588
768,2.1344775042234407
769,2.1344775042234407
770,0.14150122705078125
798,1056.114045955058
2,1, 1,15, 0,21, 0.00,60.00,WinterDesignDay
7,-3.0
8,21.000016467299513
143,21.000016467299513
206,18.00009191297561
269,18.00009191297561
332,19.253739809839466
395,19.253739809839466
458,17.999849600233965
521,17.999849600233965
584,38.12131003591444
647,366.4701409131546
648,0.029496
651,366.4701409131546
652,0.029496
655,161.52589213399514
656,0.00202172900390625
659,161.52589213399514
660,0.00202172900390625
663,403.8480076090151
664,0.029496
667,403.8480076090151
668,0.029496
671,359.3312492711211
672,0.009735984375
675,359.3312492711211
676,0.009735984375
677,2580.1940776486217
691,33.758950399533234
692,38.507675619061416
693,815.884175390447
768,2.1344504375302984
769,2.1344504375302984
770,0.1414994267578125
798,1055.9920660942996
2,1, 1,15, 0,22, 0.00,60.00,WinterDesignDay
7,-3.0
8,21.000015136688692
143,21.000015136688692
206,18.000168598274563
269,18.000168598274563
332,19.253741964287723
395,19.253741964287723
458,18.000089662936027
521,18.000089662936027
584,38.1213074080805
647,366.470125313823
648,0.029496
651,366.470125313823
652,0.029496
655,161.58744769765204
656,0.0020226291503906255
659,161.58744769765204
660,0.0020226291503906255
663,403.8480017715037
664,0.029496
667,403.8480017715037
668,0.029496
671,359.4520470490501
672,0.00975038671875
675,359.4520470490501
676,0.00975038671875
677,2580.6022511603146
691,33.759201508677464
692,38.50867795225726
693,816.0368168341728
768,2.134912271134458
769,2.134912271134458
770,0.14153003173828124
798,1056.1151460229498
2,1, 1,15, 0,23, 0.00,60.00,WinterDesignDay
7,-3.0
8,21.000013569813856
143,21.000013569813856
206,18.00027175892499
269,18.00027175892499
332,19.253739123312062
395,19.253739123312062
458,18.00004772063352
521,18.00004772063352
584,38.121305080064275
647,366.47009099238824
648,0.029496
651,366.47009099238824
652,0.029496
655,161.58678763463087
656,0.002022629150390625
659,161.58678763463087
660,0.002022629150390625
663,403.8479312749921
664,0.029496
667,403.8479312749921
668,0.029496
671,359.456356577137
672,0.00975038671875
675,359.456356577137
676,0.00975038671875
677,2580.621662460062
691,33.75916632214101
692,38.5086784913003
693,816.0429665318488
768,2.134912246992463
769,2.134912246992463
770,0.14153003173828124
798,1056.1137572540383
2,1, 1,15, 0,24, 0.00,60.00,WinterDesignDay
7,-3.0
8,21.00001188521108
143,21.00001188521108
206,18.000089717904533
269,18.000089717904533
332,19.253736988214854
395,19.253736988214854
458,17.999893958705876
521,17.999893958705876
584,38.12130289781291
647,366.47008567776845
648,0.029496
651,366.47008567776845
652,0.029496
655,161.52587047363423
656,0.00202172900390625
659,161.52587047363423
660,0.00202172900390625
663,403.84799511218847
664,0.029496
667,403.84799511218847
668,0.029496
671,359.3275681982868
672,0.009735984375
675,359.3275681982868
676,0.009735984375
677,2580.1854139644815
691,33.75895794920059
692,38.507667223627706
693,815.8812393424968
768,2.134450442688278
769,2.134450442688278
770,0.14149942675781246
798,1055.9919123028053
End of Data
 Number of Records Written=         816
