Program Version,EnergyPlus, Version 24.2.0-94a887817b, YMD=2026.05.15 14:38
1,5,Environment Title[],Latitude[deg],Longitude[deg],Time Zone[],Elevation[m]
2,8,Day of Simulation[],Month[],Day of Month[],DST Indicator[1=yes 0=no],Hour[],StartMinute[],EndMinute[],DayType
3,5,Cumulative Day of Simulation[],Month[],Day of Month[],DST Indicator[1=yes 0=no],DayType  ! When Daily Report Variables Requested
4,2,Cumulative Days of Simulation[],Month[]  ! When Monthly Report Variables Requested
5,1,Cumulative Days of Simulation[] ! When Run Period Report Variables Requested
6,1,Calendar Year of Simulation[] ! When Annual Report Variables Requested
7,1,Environment,Site Outdoor Air Drybulb Temperature [C] !Hourly
8,1,Z1,Zone Air Temperature [C] !Hourly
143,1,Z2,Zone Air Temperature [C] !Hourly
206,1,Z3,Zone Air Temperature [C] !Hourly
269,1,Z4,Zone Air Temperature [C] !Hourly
332,1,Z5,Zone Air Temperature [C] !Hourly
395,1,Z6,Zone Air Temperature [C] !Hourly
458,1,Z7,Zone Air Temperature [C] !Hourly
521,1,Z8,Zone Air Temperature [C] !Hourly
584,1,HOT WATER LOOP,Plant Supply Side Outlet Temperature [C] !Hourly
647,1,Z1 RADIATOR,Baseboard Total Heating Rate [W] !Hourly
648,1,Z1 RADIATOR,Baseboard Hot Water Mass Flow Rate [kg/s] !Hourly
651,1,Z2 RADIATOR,Baseboard Total Heating Rate [W] !Hourly
652,1,Z2 RADIATOR,Baseboard Hot Water Mass Flow Rate [kg/s] !Hourly
655,1,Z3 RADIATOR,Baseboard Total Heating Rate [W] !Hourly
656,1,Z3 RADIATOR,Baseboard Hot Water Mass Flow Rate [kg/s] !Hourly
659,1,Z4 RADIATOR,Baseboard Total Heating Rate [W] !Hourly
660,1,Z4 RADIATOR,Baseboard Hot Water Mass Flow Rate [kg/s] !Hourly
663,1,Z5 RADIATOR,Baseboard Total Heating Rate [W] !Hourly
664,1,Z5 RADIATOR,Baseboard Hot Water Mass Flow Rate [kg/s] !Hourly
667,1,Z6 RADIATOR,Baseboard Total Heating Rate [W] !Hourly
668,1,Z6 RADIATOR,Baseboard Hot Water Mass Flow Rate [kg/s] !Hourly
671,1,Z7 RADIATOR,Baseboard Total Heating Rate [W] !Hourly
672,1,Z7 RADIATOR,Baseboard Hot Water Mass Flow Rate [kg/s] !Hourly
675,1,Z8 RADIATOR,Baseboard Total Heating Rate [W] !Hourly
676,1,Z8 RADIATOR,Baseboard Hot Water Mass Flow Rate [kg/s] !Hourly
677,1,HEAT PUMP,Heat Pump Load Side Heat Transfer Rate [W] !Hourly
691,1,HEAT PUMP,Heat Pump Load Side Inlet Temperature [C] !Hourly
692,1,HEAT PUMP,Heat Pump Load Side Outlet Temperature [C] !Hourly
693,1,HEAT PUMP,Heat Pump Electricity Rate [W] !Hourly
768,1,SUPPLY PUMP,Pump Electricity Rate [W] !Hourly
769,1,SUPPLY PUMP,Pump Fluid Heat Gain Rate [W] !Hourly
770,1,SUPPLY PUMP,Pump Mass Flow Rate [kg/s] !Hourly
798,1,Baseboard Total Heating Rate All Zones,PythonPlugin:OutputVariable [W] !Hourly
End of Data Dictionary
1,WINTER DESIGN DAY IN (MID) UK,  53.35,  -2.28,   0.00,  69.00
2,1, 1,15, 0, 1, 0.00,60.00,WinterDesignDay
7,-3.0
8,20.99013693620658
143,20.99013693620658
206,18.00004094925999
269,18.00004094925999
332,20.99972247272637
395,20.99972247272637
458,18.000284410152126
521,18.000284410152126
584,45.518621014869055
647,324.43980162205617
648,0.029496
651,324.43980162205617
652,0.029496
655,150.7567718347329
656,0.001435733642578125
659,150.7567718347329
660,0.001435733642578125
663,512.201282214297
664,0.02408071875
667,512.201282214297
668,0.02408071875
671,331.33130335150815
672,0.0035537783203125
675,331.33130335150815
676,0.0035537783203125
677,2635.481203258683
691,40.66814245439103
692,45.518621014869055
693,1001.8645007540256
768,1.9656585728456024
769,1.9656585728456024
770,0.12998674
798,2637.458318045188
2,1, 1,15, 0, 2, 0.00,60.00,WinterDesignDay
7,-3.0
8,20.990450672577825
143,20.990450672577825
206,17.999822123897108
269,17.999822123897108
332,20.999388471237168
395,20.999388471237168
458,18.000409542277872
521,18.000409542277872
584,45.520192784819756
647,324.4564234167517
648,0.029496
651,324.4564234167517
652,0.029496
655,150.69333115521883
656,0.0014348334960937502
659,150.69333115521883
660,0.0014348334960937502
663,512.0725486526555
664,0.024023109375
667,512.0725486526555
668,0.024023109375
671,331.34887300488924
672,0.0035537783203125
675,331.34887300488924
676,0.0035537783203125
677,2635.2248329248323
691,40.670186061821106
692,45.520192784819756
693,1001.8048134024172
768,1.9656601927294415
769,1.9656601927294415
770,0.12998674
798,2637.142352459031
2,1, 1,15, 0, 3, 0.00,60.00,WinterDesignDay
7,-3.0
8,20.990742885418257
143,20.990742885418257
206,17.9999401235155
269,17.9999401235155
332,20.998340792137718
395,20.998340792137718
458,18.000554354234893
521,18.000554354234893
584,45.521714660054116
647,324.47264501610425
648,0.029496
651,324.47264501610425
652,0.029496
655,150.7748880574055
656,0.001435733642578125
659,150.7748880574055
660,0.001435733642578125
663,511.96314383029244
664,0.0239655
667,511.96314383029244
668,0.0239655
671,331.36554713529443
672,0.0035537783203125
675,331.36554713529443
676,0.0035537783203125
677,2635.149810640766
691,40.67184601202256
692,45.521714660054116
693,1001.8128637779994
768,1.9656615085046838
769,1.9656615085046838
770,0.12998674
798,2637.152448078193
2,1, 1,15, 0, 4, 0.00,60.00,WinterDesignDay
7,-3.0
8,20.99098872503848
143,20.99098872503848
206,17.99987897752197
269,17.99987897752197
332,20.998258556286995
395,20.998258556286995
458,18.000060755632653
521,18.000060755632653
584,45.5231909384684
647,324.48876830804704
648,0.029496
651,324.48876830804704
652,0.029496
655,150.7101318529045
656,0.0014348334960937502
659,150.7101318529045
660,0.0014348334960937502
663,512.0015631619153
664,0.0239655
667,512.0015631619153
668,0.0239655
671,331.28860325025516
672,0.0035519780273437504
675,331.28860325025516
676,0.0035519780273437504
677,2635.013243921532
691,40.67357363502732
692,45.5231909384684
693,1001.7964187179784
768,1.965662877924466
769,1.965662877924466
770,0.12998674
798,2636.978133146244
2,1, 1,15, 0, 5, 0.00,60.00,WinterDesignDay
7,-3.0
8,20.991209634619494
143,20.991209634619494
206,18.000027030128724
269,18.000027030128724
332,20.998317155230318
395,20.998317155230318
458,18.000042128090264
521,18.000042128090264
584,45.52462825110949
647,324.5048340831755
648,0.029496
651,324.5048340831755
652,0.029496
655,150.7905936262889
656,0.001435733642578125
659,150.7905936262889
660,0.001435733642578125
663,512.0311863802206
664,0.0239655
667,512.0311863802206
668,0.0239655
671,331.3064996727608
672,0.0035519780273437504
675,331.3064996727608
676,0.0035519780273437504
677,2635.2634408948948
691,40.67455047196716
692,45.52462825110949
693,1001.9260813362168
768,1.9656636522253796
769,1.9656636522253796
770,0.12998674
798,2637.2662275248917
2,1, 1,15, 0, 6, 0.00,60.00,WinterDesignDay
7,-3.0
8,20.991426349602758
143,20.991426349602758
206,17.999774128099503
269,17.999774128099503
332,20.998466787195277
395,20.998466787195277
458,18.000091997001505
521,18.000091997001505
584,45.52603038664954
647,324.5205185722573
648,0.029496
651,324.5205185722573
652,0.029496
655,150.72688064432808
656,0.00143483349609375
659,150.72688064432808
660,0.00143483349609375
663,512.0577521069725
664,0.0239655
667,512.0577521069725
668,0.0239655
671,331.32300285624046
672,0.0035519780273437504
675,331.32300285624046
676,0.0035519780273437504
677,2635.2709032593148
691,40.675938873378286
692,45.52603038664954
693,1001.9626146895663
768,1.9656647527590385
769,1.9656647527590385
770,0.12998674
798,2637.256308359597
2,1, 1,15, 0, 7, 0.00,60.00,WinterDesignDay
7,-3.0
8,20.991644228554808
143,20.991644228554808
206,17.999774074171977
269,17.999774074171977
332,20.998672945110627
395,20.998672945110627
458,17.999831932469128
521,17.999831932469128
584,45.52739785566895
647,324.53576458141157
648,0.029496
651,324.53576458141157
652,0.029496
655,150.73442343704994
656,0.00143483349609375
659,150.73442343704994
660,0.00143483349609375
663,512.0822763779901
664,0.0239655
667,512.0822763779901
668,0.0239655
671,331.23855742938906
672,0.0035501777343750008
675,331.23855742938906
676,0.0035501777343750008
677,2635.221079729791
691,40.67739804024834
692,45.52739785566895
693,1001.976532257707
768,1.965665909387431
769,1.965665909387431
770,0.12998674
798,2637.1820436516814
2,1, 1,15, 0, 8, 0.00,60.00,WinterDesignDay
7,-3.0
8,20.99187342980673
143,20.99187342980673
206,17.99980976042565
269,17.99980976042565
332,20.998906048705326
395,20.998906048705326
458,17.99959919355215
521,17.99959919355215
584,45.52873023075931
647,324.5504157577546
648,0.029496
651,324.5504157577546
652,0.029496
655,150.74156805133777
656,0.00143483349609375
659,150.74156805133777
660,0.00143483349609375
663,512.1053357457747
664,0.0239655
667,512.1053357457747
668,0.0239655
671,331.2611982200871
672,0.0035501777343750008
675,331.2611982200871
676,0.0035501777343750008
677,2635.329059948888
691,40.678531682850284
692,45.52873023075931
693,1002.0496089804903
768,1.9656668079854003
769,1.9656668079854003
770,0.12998674
798,2637.3170355499083
2,1, 1,15, 0, 9, 0.00,60.00,WinterDesignDay
7,-3.0
8,20.992113958777303
143,20.992113958777303
206,17.99986289971316
269,17.99986289971316
332,20.999159421657847
395,20.999159421657847
458,17.999607110556504
521,17.999607110556504
584,45.53002569938293
647,324.5644248783085
648,0.029496
651,324.5644248783085
652,0.029496
655,150.74841354020867
656,0.00143483349609375
659,150.74841354020867
660,0.00143483349609375
663,512.1272464376506
664,0.0239655
667,512.1272464376506
668,0.0239655
671,331.2769959268526
672,0.0035501777343750008
675,331.2769959268526
676,0.0035501777343750008
677,2635.4448483167207
691,40.679614048456884
692,45.53002569938293
693,1002.1247703035056
768,1.9656676659387233
769,1.9656676659387233
770,0.12998674
798,2637.434161566041
2,1, 1,15, 0,10, 0.00,60.00,WinterDesignDay
7,-3.0
8,20.99236583636434
143,20.99236583636434
206,17.999938136198768
269,17.999938136198768
332,20.999433801224406
395,20.999433801224406
458,17.999685740765344
521,17.999685740765344
584,45.531282457804465
647,324.57777477484234
648,0.029496
651,324.57777477484234
652,0.029496
655,150.75492947143576
656,0.00143483349609375
659,150.75492947143576
660,0.00143483349609375
663,512.147893806177
664,0.0239655
667,512.147893806177
668,0.0239655
671,331.29136262715906
672,0.0035501777343750008
675,331.29136262715906
676,0.0035501777343750008
677,2635.5532277260295
691,40.6806713396993
692,45.531282457804465
693,1002.19618665943
768,1.9656685040171982
769,1.9656685040171982
770,0.12998674
798,2637.543921359228
2,1, 1,15, 0,11, 0.00,60.00,WinterDesignDay
7,-3.0
8,20.992629472741502
143,20.992629472741502
206,18.00003734314527
269,18.00003734314527
332,20.999726183599623
395,20.999726183599623
458,17.99980775413683
521,17.99980775413683
584,45.53249868070756
647,324.59043461783625
648,0.029496
651,324.59043461783625
652,0.029496
655,150.7610938369225
656,0.00143483349609375
659,150.7610938369225
660,0.00143483349609375
663,512.1673028995804
664,0.0239655
667,512.1673028995804
668,0.0239655
671,331.3046733228681
672,0.0035501777343750008
675,331.3046733228681
676,0.0035501777343750008
677,2635.654860296436
691,40.6817005126613
692,45.53249868070756
693,1002.2640655917382
768,1.9656693198079638
769,1.9656693198079638
770,0.12998674
798,2637.6470093544144
2,1, 1,15, 0,12, 0.00,60.00,WinterDesignDay
7,-3.0
8,20.992904754363494
143,20.992904754363494
206,17.999944190735235
269,17.999944190735235
332,21.000033351363406
395,21.000033351363406
458,17.9999620538474
521,17.9999620538474
584,45.53367248715908
647,324.60237905977675
648,0.029496
651,324.60237905977675
652,0.029496
655,150.6948343654292
656,0.001433933349609375
659,150.6948343654292
660,0.001433933349609375
663,512.1855025512875
664,0.0239655
667,512.1855025512875
668,0.0239655
671,331.3170590142289
672,0.0035501777343750008
675,331.3170590142289
676,0.0035501777343750008
677,2635.624350928392
691,40.682930470162354
692,45.53367248715908
693,1002.2806755519492
768,1.9656702947549758
769,1.9656702947549758
770,0.12998674
798,2637.5995499814444
2,1, 1,15, 0,13, 0.00,60.00,WinterDesignDay
7,-3.0
8,20.993185552453106
143,20.993185552453106
206,18.000064571813688
269,18.000064571813688
332,21.000352162706836
395,21.000352162706836
458,18.000137093176015
521,18.000137093176015
584,45.53480209766191
647,324.6136321516005
648,0.029496
651,324.6136321516005
652,0.029496
655,150.7744903441179
656,0.00143483349609375
659,150.7744903441179
660,0.00143483349609375
663,512.2025188227891
664,0.0239655
667,512.2025188227891
668,0.0239655
671,331.3286197262712
672,0.0035501777343750008
675,331.3286197262712
676,0.0035501777343750008
677,2635.8246074431436
691,40.68369151801704
692,45.53480209766191
693,1002.3839818227796
768,1.9656708980131181
769,1.9656708980131181
770,0.12998674
798,2637.838522089558
2,1, 1,15, 0,14, 0.00,60.00,WinterDesignDay
7,-3.0
8,20.99346752741953
143,20.99346752741953
206,18.000032323568817
269,18.000032323568817
332,21.000678606566396
395,21.000678606566396
458,18.000323072735522
521,18.000323072735522
584,45.53588679948098
647,324.62427436684334
648,0.029496
651,324.62427436684334
652,0.029496
655,150.70714088883136
656,0.001433933349609375
659,150.70714088883136
660,0.001433933349609375
663,512.2184200072459
664,0.0239655
667,512.2184200072459
668,0.0239655
671,331.3394918612814
672,0.0035501777343750008
675,331.3394918612814
676,0.0035501777343750008
677,2635.8004856092666
691,40.68482061493099
692,45.53588679948098
693,1002.4008810830893
768,1.965671793012605
769,1.965671793012605
770,0.12998674
798,2637.7786542484037
2,1, 1,15, 0,15, 0.00,60.00,WinterDesignDay
7,-3.0
8,20.99375410062519
143,20.99375410062519
206,17.99963507088291
269,17.99963507088291
332,21.001002279066984
395,21.001002279066984
458,17.999857567390556
521,17.999857567390556
584,45.53692616904131
647,324.6342680368588
648,0.029496
651,324.6342680368588
652,0.029496
655,150.6426488289071
656,0.0014330332031250001
659,150.6426488289071
660,0.0014330332031250001
663,512.2333266442646
664,0.0239655
667,512.2333266442646
668,0.0239655
671,331.25748907680713
672,0.0035483774414062502
675,331.25748907680713
676,0.0035483774414062502
677,2635.536433273348
691,40.686345960332325
692,45.53692616904131
693,1002.3254421757597
768,1.9656730021064803
769,1.9656730021064803
770,0.12998674
798,2637.535465173675
2,1, 1,15, 0,16, 0.00,60.00,WinterDesignDay
7,-3.0
8,20.99402597618316
143,20.99402597618316
206,17.999903593955285
269,17.999903593955285
332,21.001314409317054
395,21.001314409317054
458,17.999888628068828
521,17.999888628068828
584,45.53792008032953
647,324.64378193838303
648,0.029496
651,324.64378193838303
652,0.029496
655,150.72003100608993
656,0.001433933349609375
659,150.72003100608993
660,0.001433933349609375
663,512.2475727427919
664,0.0239655
667,512.2475727427919
668,0.0239655
671,331.2691172048794
672,0.0035483774414062502
675,331.2691172048794
676,0.0035483774414062502
677,2635.760930376277
691,40.686926695315854
692,45.53792008032953
693,1002.4347110107108
768,1.9656734624378116
769,1.9656734624378116
770,0.12998674
798,2637.7610057842885
2,1, 1,15, 0,17, 0.00,60.00,WinterDesignDay
7,-3.0
8,20.994301855015458
143,20.994301855015458
206,17.999686277101087
269,17.999686277101087
332,21.001622240714294
395,21.001622240714294
458,17.9994199407744
521,17.9994199407744
584,45.538870385871746
647,324.6527573385209
648,0.029496
651,324.6527573385209
652,0.029496
655,150.6531473289312
656,0.0014330332031250001
659,150.6531473289312
660,0.0014330332031250001
663,512.2610052841884
664,0.0239655
667,512.2610052841884
668,0.0239655
671,331.1840640699873
672,0.0035465771484375005
675,331.1840640699873
676,0.0035465771484375005
677,2635.498776771385
691,40.688359482174384
692,45.538870385871746
693,1002.3578474814548
768,1.9656745981652402
769,1.9656745981652402
770,0.12998674
798,2637.5019480432557
2,1, 1,15, 0,18, 0.00,60.00,WinterDesignDay
7,-3.0
8,20.99456399760965
143,20.99456399760965
206,17.999666807075016
269,17.999666807075016
332,21.000921431423894
395,21.000921431423894
458,18.000012105916248
521,18.000012105916248
584,45.539776774950255
647,324.6611995191227
648,0.029496
651,324.6611995191227
652,0.029496
655,150.6587680406922
656,0.0014330332031250001
659,150.6587680406922
660,0.0014330332031250001
663,512.1278762632984
664,0.023907890625
667,512.1278762632984
668,0.023907890625
671,331.29006406511223
672,0.0035483774414062502
675,331.29006406511223
676,0.0035483774414062502
677,2635.470658422874
691,40.68931762174401
692,45.539776774950255
693,1002.3689366594807
768,1.965675357655648
769,1.965675357655648
770,0.12998674
798,2637.475815776451
2,1, 1,15, 0,19, 0.00,60.00,WinterDesignDay
7,-3.0
8,20.994777254599125
143,20.994777254599125
206,17.99969811699006
269,17.99969811699006
332,21.00034496592994
395,21.00034496592994
458,17.999482975412683
521,17.999482975412683
584,45.54064214153456
647,324.669677114102
648,0.029496
651,324.669677114102
652,0.029496
655,150.66340519536504
656,0.0014330332031250001
659,150.66340519536504
660,0.0014330332031250001
663,511.9819115514769
664,0.02385028125
667,511.9819115514769
668,0.02385028125
671,331.2068152677583
672,0.0035465771484375005
675,331.2068152677583
676,0.0035465771484375005
677,2635.081868965616
691,40.690898536944125
692,45.54064214153456
693,1002.2418603532051
768,1.9656766108025665
769,1.9656766108025665
770,0.12998674
798,2637.043618257405
2,1, 1,15, 0,20, 0.00,60.00,WinterDesignDay
7,-3.0
8,20.994960232685052
143,20.994960232685052
206,17.999741870658607
269,17.999741870658607
332,21.000640752557096
395,21.000640752557096
458,17.999442707968814
521,17.999442707968814
584,45.54147403323903
647,324.6782191621111
648,0.029496
651,324.6782191621111
652,0.029496
655,150.6677370225784
656,0.0014330332031250001
659,150.6677370225784
660,0.0014330332031250001
663,512.1749351979158
664,0.023907890625
667,512.1749351979158
668,0.023907890625
671,331.21738734060256
672,0.0035465771484375005
675,331.21738734060256
676,0.0035465771484375005
677,2635.4250303944627
691,40.69109885626199
692,45.54147403323903
693,1002.3923728790804
768,1.9656767695899218
769,1.9656767695899218
770,0.12998674
798,2637.4765574464154
2,1, 1,15, 0,21, 0.00,60.00,WinterDesignDay
7,-3.0
8,20.99512679306354
143,20.99512679306354
206,17.999794150516436
269,17.999794150516436
332,21.00043492612186
395,21.00043492612186
458,17.999458838563058
521,17.999458838563058
584,45.54227718881046
647,324.68659207543953
648,0.029496
651,324.68659207543953
652,0.029496
655,150.67186725139362
656,0.0014330332031250001
659,150.67186725139362
660,0.0014330332031250001
663,512.019478796646
664,0.02385028125
667,512.019478796646
668,0.02385028125
671,331.2269554705356
672,0.0035465771484375005
675,331.2269554705356
676,0.0035465771484375005
677,2635.2460714069725
691,40.692231377389504
692,45.54227718881046
693,1002.3436059643227
768,1.9656776673095586
769,1.9656776673095586
770,0.12998674
798,2637.2097871880296
2,1, 1,15, 0,22, 0.00,60.00,WinterDesignDay
7,-3.0
8,20.995277814196292
143,20.995277814196292
206,17.999856106557488
269,17.999856106557488
332,21.000152005739693
395,21.000152005739693
458,17.999498777583884
521,17.999498777583884
584,45.543053704551994
647,324.6948090569874
648,0.029496
651,324.6948090569874
652,0.029496
655,150.67579812910833
656,0.0014330332031250001
659,150.67579812910833
660,0.0014330332031250001
663,512.0473894853004
664,0.02385028125
667,512.0473894853004
668,0.02385028125
671,331.23587994853995
672,0.0035465771484375005
675,331.23587994853995
676,0.0035465771484375005
677,2635.2993232251756
691,40.692909885677146
692,45.543053704551994
693,1002.3825221101037
768,1.9656782051450916
769,1.9656782051450916
770,0.12998674
798,2637.307753239872
2,1, 1,15, 0,23, 0.00,60.00,WinterDesignDay
7,-3.0
8,20.995411273099908
143,20.995411273099908
206,17.999924856703757
269,17.999924856703757
332,21.000171460697747
395,21.000171460697747
458,17.999553241823634
521,17.999553241823634
584,45.54380657929879
647,324.7029834186934
648,0.029496
651,324.7029834186934
652,0.029496
655,150.67955714358413
656,0.0014330332031250001
659,150.67955714358413
660,0.0014330332031250001
663,512.0630826600202
664,0.02385028125
667,512.0630826600202
668,0.02385028125
671,331.2443557511818
672,0.0035465771484375005
675,331.2443557511818
676,0.0035465771484375005
677,2635.3707066368916
691,40.69353138262937
692,45.54380657929879
693,1002.427767567467
768,1.965678697789588
769,1.965678697789588
770,0.12998674
798,2637.3799579469587
2,1, 1,15, 0,24, 0.00,60.00,WinterDesignDay
7,-3.0
8,20.995542042211497
143,20.995542042211497
206,17.999999685517302
269,17.999999685517302
332,21.000255358773874
395,21.000255358773874
458,17.999625439458953
521,17.999625439458953
584,45.544538175156276
647,324.710943884095
648,0.029496
651,324.710943884095
652,0.029496
655,150.68316690796027
656,0.0014330332031250001
659,150.68316690796027
660,0.0014330332031250001
663,512.0768443009373
664,0.02385028125
667,512.0768443009373
668,0.02385028125
671,331.2523539322462
672,0.0035465771484375005
675,331.2523539322462
676,0.0035465771484375005
677,2635.43665714257
691,40.694141599699
692,45.544538175156276
693,1002.4704360296173
768,1.9656791814930545
769,1.9656791814930545
770,0.12998674
798,2637.4466180504774
End of Data
 Number of Records Written=         816
