Program Version,EnergyPlus, Version 24.2.0-94a887817b, YMD=2026.04.20 12:10
1,5,Environment Title[],Latitude[deg],Longitude[deg],Time Zone[],Elevation[m]
2,8,Day of Simulation[],Month[],Day of Month[],DST Indicator[1=yes 0=no],Hour[],StartMinute[],EndMinute[],DayType
3,5,Cumulative Day of Simulation[],Month[],Day of Month[],DST Indicator[1=yes 0=no],DayType  ! When Daily Report Variables Requested
4,2,Cumulative Days of Simulation[],Month[]  ! When Monthly Report Variables Requested
5,1,Cumulative Days of Simulation[] ! When Run Period Report Variables Requested
6,1,Calendar Year of Simulation[] ! When Annual Report Variables Requested
7,1,Environment,Site Outdoor Air Drybulb Temperature [C] !Hourly
8,1,Z1,Zone Air Temperature [C] !Hourly
143,1,Z2,Zone Air Temperature [C] !Hourly
206,1,Z3,Zone Air Temperature [C] !Hourly
269,1,Z4,Zone Air Temperature [C] !Hourly
332,1,Z5,Zone Air Temperature [C] !Hourly
395,1,Z6,Zone Air Temperature [C] !Hourly
458,1,Z7,Zone Air Temperature [C] !Hourly
521,1,Z8,Zone Air Temperature [C] !Hourly
584,1,HOT WATER LOOP,Plant Supply Side Outlet Temperature [C] !Hourly
647,1,Z1 RADIATOR,Baseboard Total Heating Rate [W] !Hourly
648,1,Z1 RADIATOR,Baseboard Hot Water Mass Flow Rate [kg/s] !Hourly
651,1,Z2 RADIATOR,Baseboard Total Heating Rate [W] !Hourly
652,1,Z2 RADIATOR,Baseboard Hot Water Mass Flow Rate [kg/s] !Hourly
655,1,Z3 RADIATOR,Baseboard Total Heating Rate [W] !Hourly
656,1,Z3 RADIATOR,Baseboard Hot Water Mass Flow Rate [kg/s] !Hourly
659,1,Z4 RADIATOR,Baseboard Total Heating Rate [W] !Hourly
660,1,Z4 RADIATOR,Baseboard Hot Water Mass Flow Rate [kg/s] !Hourly
663,1,Z5 RADIATOR,Baseboard Total Heating Rate [W] !Hourly
664,1,Z5 RADIATOR,Baseboard Hot Water Mass Flow Rate [kg/s] !Hourly
667,1,Z6 RADIATOR,Baseboard Total Heating Rate [W] !Hourly
668,1,Z6 RADIATOR,Baseboard Hot Water Mass Flow Rate [kg/s] !Hourly
671,1,Z7 RADIATOR,Baseboard Total Heating Rate [W] !Hourly
672,1,Z7 RADIATOR,Baseboard Hot Water Mass Flow Rate [kg/s] !Hourly
675,1,Z8 RADIATOR,Baseboard Total Heating Rate [W] !Hourly
676,1,Z8 RADIATOR,Baseboard Hot Water Mass Flow Rate [kg/s] !Hourly
677,1,HEAT PUMP,Heat Pump Load Side Heat Transfer Rate [W] !Hourly
691,1,HEAT PUMP,Heat Pump Load Side Inlet Temperature [C] !Hourly
692,1,HEAT PUMP,Heat Pump Load Side Outlet Temperature [C] !Hourly
693,1,HEAT PUMP,Heat Pump Electricity Rate [W] !Hourly
768,1,SUPPLY PUMP,Pump Electricity Rate [W] !Hourly
769,1,SUPPLY PUMP,Pump Fluid Heat Gain Rate [W] !Hourly
770,1,SUPPLY PUMP,Pump Mass Flow Rate [kg/s] !Hourly
798,1,Baseboard Total Heating Rate All Zones,PythonPlugin:OutputVariable [W] !Hourly
End of Data Dictionary
1,WINTER DESIGN DAY IN (MID) UK,  53.35,  -2.28,   0.00,  69.00
2,1, 1,15, 0, 1, 0.00,60.00,WinterDesignDay
7,-3.0
8,21.001472907138123
143,21.001472907138123
206,18.000222546916262
269,18.000222546916262
332,21.00049707959498
395,21.00049707959498
458,18.000407951930946
521,18.000407951930946
584,47.34299100746327
647,562.8612182627792
648,0.029035125000000002
651,562.8612182627792
652,0.029035125000000002
655,382.2079786544525
656,0.0040866650390625
659,382.2079786544525
660,0.0040866650390625
663,251.07197027833587
664,0.0025096083984375
667,251.07197027833587
668,0.0025096083984375
671,113.15488400889564
672,0.00092355029296875
675,113.15488400889564
676,0.00092355029296875
677,2616.287685928446
691,42.5278372082453
692,47.34299100746327
693,1038.0949715994384
768,1.9671337810788454
769,1.9671337810788454
770,0.12998674
798,1890.1383938344636
2,1, 1,15, 0, 2, 0.00,60.00,WinterDesignDay
7,-3.0
8,21.00145934587431
143,21.00145934587431
206,18.000346872024814
269,18.000346872024814
332,21.000340127657445
395,21.000340127657445
458,18.000495958669
521,18.000495958669
584,47.34275571185871
647,562.8565574682132
648,0.029035125000000002
651,562.8565574682132
652,0.029035125000000002
655,382.20203728545727
656,0.0040866650390625
659,382.20203728545727
660,0.0040866650390625
663,250.92981267270918
664,0.0025078081054687494
667,250.92981267270918
668,0.0025078081054687494
671,113.15357890130012
672,0.00092355029296875
675,113.15357890130012
676,0.00092355029296875
677,2616.049194092273
691,42.528040845590354
692,47.34275571185871
693,1037.994729227299
768,1.967133942736373
769,1.967133942736373
770,0.12998674
798,1890.1171895073408
2,1, 1,15, 0, 3, 0.00,60.00,WinterDesignDay
7,-3.0
8,21.000678312891157
143,21.000678312891157
206,17.99965709450558
269,17.99965709450558
332,21.000011750060356
395,21.000011750060356
458,17.99988021526081
521,17.99988021526081
584,47.342522695834305
647,562.6025719318035
648,0.028919906250000002
651,562.6025719318035
652,0.028919906250000002
655,382.02159895310194
656,0.004083064453125
659,382.02159895310194
660,0.004083064453125
663,250.92916930607697
664,0.00250780810546875
667,250.92916930607697
668,0.00250780810546875
671,113.10009227631551
672,0.0009231002197265625
675,113.10009227631551
676,0.0009231002197265625
677,2615.1474996448505
691,42.52946735556823
692,47.342522695834305
693,1037.6313987961794
768,1.967135075171336
769,1.967135075171336
770,0.12998674
798,1889.2483417698108
2,1, 1,15, 0, 4, 0.00,60.00,WinterDesignDay
7,-3.0
8,21.00057318565985
143,21.00057318565985
206,18.000799073500875
269,18.000799073500875
332,21.0004904377615
395,21.0004904377615
458,18.000361602182046
521,18.000361602182046
584,47.34242544259199
647,562.8814935701997
648,0.029035125000000002
651,562.8814935701997
652,0.029035125000000002
655,382.3793385015007
656,0.004090265625000001
659,382.3793385015007
660,0.004090265625000001
663,251.06642875572035
664,0.0025096083984375
667,251.06642875572035
668,0.0025096083984375
671,113.15281151404736
672,0.00092355029296875
675,113.15281151404736
676,0.00092355029296875
677,2616.5533257945413
691,42.526782745758766
692,47.34242544259199
693,1038.1868779025256
768,1.9671329439959173
769,1.9671329439959173
770,0.12998674
798,1890.521664143401
2,1, 1,15, 0, 5, 0.00,60.00,WinterDesignDay
7,-3.0
8,21.000980523527833
143,21.000980523527833
206,17.99965993317612
269,17.99965993317612
332,21.000311506653787
395,21.000311506653787
458,18.000463226454887
521,18.000463226454887
584,47.342331969383864
647,562.8583723374937
648,0.029035125000000002
651,562.8583723374937
652,0.029035125000000002
655,382.0186851540431
656,0.004083064453125
659,382.0186851540431
660,0.004083064453125
663,250.92595097286727
664,0.0025078081054687494
667,250.92595097286727
668,0.0025078081054687494
671,113.15206229334608
672,0.00092355029296875
675,113.15206229334608
676,0.00092355029296875
677,2615.725502114342
691,42.52821284289814
692,47.342331969383864
693,1037.8561872829612
768,1.967134079276351
769,1.967134079276351
770,0.12998674
798,1889.7541149830738
2,1, 1,15, 0, 6, 0.00,60.00,WinterDesignDay
7,-3.0
8,21.001050608930107
143,21.001050608930107
206,18.000799623639036
269,18.000799623639036
332,20.999975299479328
395,20.999975299479328
458,17.99991859079953
521,17.99991859079953
584,47.34217324361101
647,562.8530508328231
648,0.029035125000000002
651,562.8530508328231
652,0.029035125000000002
655,382.3761111746412
656,0.004090265625000001
659,382.3761111746412
660,0.004090265625000001
663,250.9261537933416
664,0.00250780810546875
667,250.9261537933416
668,0.00250780810546875
671,113.09840218246396
672,0.0009231002197265625
675,113.09840218246396
676,0.0009231002197265625
677,2616.1941039407843
691,42.52719167761718
692,47.34217324361101
693,1038.038330297623
768,1.9671332686254592
769,1.9671332686254592
770,0.12998674
798,1890.4583240149286
2,1, 1,15, 0, 7, 0.00,60.00,WinterDesignDay
7,-3.0
8,21.001087447455664
143,21.001087447455664
206,17.999654262288864
269,17.999654262288864
332,21.00043889262955
395,21.00043889262955
458,18.000312388874548
521,18.000312388874548
584,47.34200430875974
647,562.8485539720532
648,0.029035125000000002
651,562.8485539720532
652,0.029035125000000002
655,382.0144775593758
656,0.004083064453125
659,382.0144775593758
660,0.004083064453125
663,251.0629135309664
664,0.0025096083984375
667,251.0629135309664
668,0.0025096083984375
671,113.15155561961576
672,0.00092355029296875
675,113.15155561961576
676,0.00092355029296875
677,2615.8983896200025
691,42.52756699099322
692,47.34200430875974
693,1037.9169685373295
768,1.9671335665671406
769,1.9671335665671406
770,0.12998674
798,1889.726063062858
2,1, 1,15, 0, 8, 0.00,60.00,WinterDesignDay
7,-3.0
8,21.00108698516223
143,21.00108698516223
206,18.000786182078226
269,18.000786182078226
332,21.00023239602031
395,21.00023239602031
458,18.000402635310518
521,18.000402635310518
584,47.341830331133
647,562.8447059057252
648,0.029035125000000002
651,562.8447059057252
652,0.029035125000000002
655,382.3717955706771
656,0.004090265625000001
659,382.3717955706771
660,0.004090265625000001
663,250.92188134848567
664,0.0025078081054687494
667,250.92188134848567
668,0.0025078081054687494
671,113.15036762365602
672,0.00092355029296875
675,113.15036762365602
676,0.00092355029296875
677,2616.3001553208123
691,42.52665358258788
692,47.341830331133
693,1038.0722272499258
768,1.9671328414600886
769,1.9671328414600886
770,0.12998674
798,1890.4330029528044
2,1, 1,15, 0, 9, 0.00,60.00,WinterDesignDay
7,-3.0
8,21.001088032197636
143,21.001088032197636
206,18.00026460327639
269,18.00026460327639
332,20.99987980770483
395,20.99987980770483
458,18.00046213557861
521,18.00046213557861
584,47.34165633126727
647,562.8409480876189
648,0.029035125000000002
651,562.8409480876189
652,0.029035125000000002
655,382.1894115350143
656,0.0040866650390625
659,382.1894115350143
660,0.0040866650390625
663,250.9221274459376
664,0.00250780810546875
667,250.9221274459376
668,0.00250780810546875
671,113.14943876713517
672,0.00092355029296875
675,113.14943876713517
676,0.00092355029296875
677,2615.9360121413915
691,42.52714977102876
692,47.34165633126727
693,1037.9235948575588
768,1.967133235358553
769,1.967133235358553
770,0.12998674
798,1890.0607192452667
2,1, 1,15, 0,10, 0.00,60.00,WinterDesignDay
7,-3.0
8,21.001081970041128
143,21.001081970041128
206,18.000315309934546
269,18.000315309934546
332,21.00036423564233
395,21.00036423564233
458,18.000494946141412
521,18.000494946141412
584,47.34148254977953
647,562.8373708855115
648,0.029035125000000002
651,562.8373708855115
652,0.029035125000000002
655,382.1855303906897
656,0.0040866650390625
659,382.1855303906897
660,0.0040866650390625
663,251.05870561403682
664,0.0025096083984375
667,251.05870561403682
668,0.0025096083984375
671,113.14861746855505
672,0.00092355029296875
675,113.14861746855505
676,0.00092355029296875
677,2616.15690419272
691,42.52656944816337
692,47.34148254977953
693,1038.007092219334
768,1.9671327746708516
769,1.9671327746708516
770,0.12998674
798,1890.0458025524024
2,1, 1,15, 0,11, 0.00,60.00,WinterDesignDay
7,-3.0
8,21.001054696074227
143,21.001054696074227
206,18.00019410825083
269,18.00019410825083
332,21.000169692131298
395,21.000169692131298
458,18.000509305370205
521,18.000509305370205
584,47.34130985235293
647,562.8340986715449
648,0.029035125000000002
651,562.8340986715449
652,0.029035125000000002
655,382.1859999110403
656,0.0040866650390625
659,382.1859999110403
660,0.0040866650390625
663,250.91753371946027
664,0.0025078081054687494
667,250.91753371946027
668,0.0025078081054687494
671,113.1478702999677
672,0.00092355029296875
675,113.1478702999677
676,0.00092355029296875
677,2615.940424983322
691,42.52679517048747
692,47.34130985235293
693,1037.9170802729157
768,1.967132953859753
769,1.967132953859753
770,0.12998674
798,1890.0401971651704
2,1, 1,15, 0,12, 0.00,60.00,WinterDesignDay
7,-3.0
8,21.001035914809666
143,21.001035914809666
206,18.00037448879656
269,18.00037448879656
332,20.99981609494776
395,20.99981609494776
458,17.999907658024313
521,17.999907658024313
584,47.341141679916554
647,562.8310842927116
648,0.029035125000000002
651,562.8310842927116
652,0.029035125000000002
655,382.1769075535522
656,0.004086665039062501
659,382.1769075535522
660,0.004086665039062501
663,250.91779152378408
664,0.00250780810546875
667,250.91779152378408
668,0.00250780810546875
671,113.09441473234597
672,0.0009231002197265625
675,113.09441473234597
676,0.0009231002197265625
677,2615.7712032261293
691,42.52693844269513
692,47.341141679916554
693,1037.8459275615592
768,1.967133067595828
769,1.967133067595828
770,0.12998674
798,1890.0159836925275
2,1, 1,15, 0,13, 0.00,60.00,WinterDesignDay
7,-3.0
8,21.001006095184476
143,21.001006095184476
206,18.000167161396902
269,18.000167161396902
332,21.000259990699348
395,21.000259990699348
458,18.00025896184954
521,18.00025896184954
584,47.34097650425458
647,562.8279371559433
648,0.029035125000000002
651,562.8279371559433
652,0.029035125000000002
655,382.18469679316934
656,0.0040866650390625
659,382.18469679316934
660,0.0040866650390625
663,251.0547615233551
664,0.0025096083984375
667,251.0547615233551
668,0.0025096083984375
671,113.1477536334962
672,0.00092355029296875
675,113.1477536334962
676,0.00092355029296875
677,2616.1288615307453
691,42.52611501383205
692,47.34097650425458
693,1037.9838930315698
768,1.9671324139194142
769,1.9671324139194142
770,0.12998674
798,1890.0252678982256
2,1, 1,15, 0,14, 0.00,60.00,WinterDesignDay
7,-3.0
8,21.00097191839378
143,21.00097191839378
206,18.00067674505859
269,18.00067674505859
332,21.000033709612673
395,21.000033709612673
458,18.000315065106278
521,18.000315065106278
584,47.340816231807146
647,562.8253714226764
648,0.029035125000000002
651,562.8253714226764
652,0.029035125000000002
655,382.16632145376377
656,0.0040866650390625
659,382.16632145376377
660,0.0040866650390625
663,250.9140498384156
664,0.0025078081054687494
667,250.9140498384156
668,0.0025078081054687494
671,113.14675504515758
672,0.00092355029296875
675,113.14675504515758
676,0.00092355029296875
677,2615.921420362898
691,42.52633652704712
692,47.340816231807146
693,1037.8977648312136
768,1.9671325897667895
769,1.9671325897667895
770,0.12998674
798,1889.9833857528806
2,1, 1,15, 0,15, 0.00,60.00,WinterDesignDay
7,-3.0
8,21.0009451631773
143,21.0009451631773
206,17.99990154827326
269,17.99990154827326
332,20.999662530082325
395,20.999662530082325
458,18.00034597385463
521,18.00034597385463
584,47.340661013882404
647,562.8225535949007
648,0.029035125000000002
651,562.8225535949007
652,0.029035125000000002
655,382.18362403975965
656,0.004086665039062501
659,382.18362403975965
660,0.004086665039062501
663,250.91465324517958
664,0.00250780810546875
667,250.91465324517958
668,0.00250780810546875
671,113.14601272540713
672,0.00092355029296875
675,113.14601272540713
676,0.00092355029296875
677,2615.818867355445
691,42.526370053084335
692,47.340661013882404
693,1037.8533730711501
768,1.967132616381354
769,1.967132616381354
770,0.12998674
798,1890.0123552693203
2,1, 1,15, 0,16, 0.00,60.00,WinterDesignDay
7,-3.0
8,21.000898264462144
143,21.000898264462144
206,18.001139260814202
269,18.001139260814202
332,21.000130227193708
395,21.000130227193708
458,18.000354380821715
521,18.000354380821715
584,47.34051095801721
647,562.820291351311
648,0.029035125000000002
651,562.820291351311
652,0.029035125000000002
655,382.3470523407394
656,0.004090265625000001
659,382.3470523407394
660,0.004090265625000001
663,251.05161523015414
664,0.0025096083984375
667,251.05161523015414
668,0.0025096083984375
671,113.14537973564437
672,0.00092355029296875
675,113.14537973564437
676,0.00092355029296875
677,2616.429051000013
691,42.52509698306815
692,47.34051095801721
693,1038.0918893993235
768,1.96713160575834
769,1.96713160575834
770,0.12998674
798,1890.3346873841006
2,1, 1,15, 0,17, 0.00,60.00,WinterDesignDay
7,-3.0
8,21.00086986808023
143,21.00086986808023
206,18.000279244100362
269,18.000279244100362
332,20.99992142149564
395,20.99992142149564
458,18.000347884540947
521,18.000347884540947
584,47.34036755344783
647,562.8178669792132
648,0.029035125000000002
651,562.8178669792132
652,0.029035125000000002
655,382.1722436294199
656,0.0040866650390625
659,382.1722436294199
660,0.0040866650390625
663,250.9108662976326
664,0.0025078081054687494
667,250.9108662976326
668,0.0025078081054687494
671,113.14482845260684
672,0.00092355029296875
675,113.14482845260684
676,0.00092355029296875
677,2615.86137126863
691,42.525998366206935
692,47.34036755344783
693,1037.8632362561352
768,1.9671323213188299
769,1.9671323213188299
770,0.12998674
798,1889.9802212172663
2,1, 1,15, 0,18, 0.00,60.00,WinterDesignDay
7,-3.0
8,21.0008365043237
143,21.0008365043237
206,18.0002589934709
269,18.0002589934709
332,21.000106753799326
395,21.000106753799326
458,18.000342295527233
521,18.000342295527233
584,47.34022918068643
647,562.8156418859668
648,0.029035125000000002
651,562.8156418859668
652,0.029035125000000002
655,382.1697426338397
656,0.0040866650390625
659,382.1697426338397
660,0.0040866650390625
663,250.9772270917855
664,0.002508708251953125
667,250.9772270917855
668,0.002508708251953125
671,113.14432576752854
672,0.00092355029296875
675,113.14432576752854
676,0.00092355029296875
677,2615.947418990376
691,42.52570162668164
692,47.34022918068643
693,1037.8940755704073
768,1.9671320857530523
769,1.9671320857530523
770,0.12998674
798,1889.970769039613
2,1, 1,15, 0,19, 0.00,60.00,WinterDesignDay
7,-3.0
8,21.00080030173729
143,21.00080030173729
206,18.000709761460527
269,18.000709761460527
332,20.999940178113864
395,20.999940178113864
458,18.00034052858593
521,18.00034052858593
584,47.34009617905805
647,562.8136021564808
648,0.029035125000000002
651,562.8136021564808
652,0.029035125000000002
655,382.15615810365966
656,0.0040866650390625
659,382.15615810365966
660,0.0040866650390625
663,250.9771715138561
664,0.002508708251953125
667,250.9771715138561
668,0.002508708251953125
671,113.1438259194424
672,0.00092355029296875
675,113.1438259194424
676,0.00092355029296875
677,2615.9453786730587
691,42.52557238016082
692,47.34009617905805
693,1037.8900934120147
768,1.9671319831508867
769,1.9671319831508867
770,0.12998674
798,1889.939520520281
2,1, 1,15, 0,20, 0.00,60.00,WinterDesignDay
7,-3.0
8,21.000770828241958
143,21.000770828241958
206,18.00092286009687
269,18.00092286009687
332,20.999786870731516
395,20.999786870731516
458,18.00033652128026
521,18.00033652128026
584,47.339968472765676
647,562.8114266674152
648,0.029035125000000002
651,562.8114266674152
652,0.029035125000000002
655,382.34556878617343
656,0.004090265625000001
659,382.34556878617343
660,0.004090265625000001
663,250.90695550852067
664,0.00250780810546875
667,250.90695550852067
668,0.00250780810546875
671,113.14334399745695
672,0.00092355029296875
675,113.14334399745695
676,0.00092355029296875
677,2616.120727488612
691,42.525121952663156
692,47.339968472765676
693,1037.956617194015
768,1.9671316255803315
769,1.9671316255803315
770,0.12998674
798,1890.3139909071774
2,1, 1,15, 0,21, 0.00,60.00,WinterDesignDay
7,-3.0
8,21.000737563288926
143,21.000737563288926
206,18.000268615427746
269,18.000268615427746
332,21.000025729218894
395,21.000025729218894
458,18.00033178021164
521,18.00033178021164
584,47.33984577293179
647,562.8095107230815
648,0.029035125000000002
651,562.8095107230815
652,0.029035125000000002
655,382.16540050314035
656,0.0040866650390625
659,382.16540050314035
660,0.0040866650390625
663,250.9750355658476
664,0.002508708251953125
667,250.9750355658476
668,0.002508708251953125
671,113.1428795257889
672,0.00092355029296875
675,113.1428795257889
676,0.00092355029296875
677,2615.9203528350586
691,42.52536803290628
692,47.33984577293179
693,1037.8741906226896
768,1.967131820930185
769,1.967131820930185
770,0.12998674
798,1889.9498224524436
2,1, 1,15, 0,22, 0.00,60.00,WinterDesignDay
7,-3.0
8,21.000705628507824
143,21.000705628507824
206,18.00036781588432
269,18.00036781588432
332,21.000103961719606
395,21.000103961719606
458,18.00032607868907
521,18.00032607868907
584,47.33972864658566
647,562.807795138951
648,0.029035125000000002
651,562.807795138951
652,0.029035125000000002
655,382.15826994994467
656,0.004086665039062501
659,382.15826994994467
660,0.004086665039062501
663,250.97231163624454
664,0.002508708251953125
667,250.97231163624454
668,0.002508708251953125
671,113.14245312286434
672,0.00092355029296875
675,113.14245312286434
676,0.00092355029296875
677,2615.8951793713313
691,42.525297237130054
692,47.33972864658566
693,1037.8614091169372
768,1.9671317647295057
769,1.9671317647295057
770,0.12998674
798,1889.9321301777914
2,1, 1,15, 0,23, 0.00,60.00,WinterDesignDay
7,-3.0
8,21.000668918068143
143,21.000668918068143
206,18.000626073264737
269,18.000626073264737
332,21.00018559554126
395,21.00018559554126
458,18.000325071663838
521,18.000325071663838
584,47.33961653584918
647,562.8060530001285
648,0.029035125000000002
651,562.8060530001285
652,0.029035125000000002
655,382.154209125047
656,0.0040866650390625
659,382.154209125047
660,0.0040866650390625
663,251.04159692478063
664,0.0025096083984375
667,251.04159692478063
668,0.0025096083984375
671,113.1420256747269
672,0.00092355029296875
675,113.1420256747269
676,0.00092355029296875
677,2616.0357142904686
691,42.52492647851878
692,47.33961653584918
693,1037.9144920701494
768,1.9671314704039222
769,1.9671314704039222
770,0.12998674
798,1889.9205242503508
2,1, 1,15, 0,24, 0.00,60.00,WinterDesignDay
7,-3.0
8,21.00063362458949
143,21.00063362458949
206,18.000841793762717
269,18.000841793762717
332,21.00005681473386
395,21.00005681473386
458,18.000315054008777
521,18.000315054008777
584,47.3395099383218
647,562.8045072792569
648,0.029035125000000002
651,562.8045072792569
652,0.029035125000000002
655,382.3406953142092
656,0.004090265625000001
659,382.3406953142092
660,0.004090265625000001
663,250.97111539735562
664,0.0025087082519531247
667,250.97111539735562
668,0.0025087082519531247
671,113.14163977810871
672,0.00092355029296875
675,113.14163977810871
676,0.00092355029296875
677,2616.205808402611
691,42.52450683081931
692,47.3395099383218
693,1037.9794336825094
768,1.9671311372681162
769,1.9671311372681162
770,0.12998674
798,1890.290405186932
End of Data
 Number of Records Written=         816
