Program Version,EnergyPlus, Version 24.2.0-94a887817b, YMD=2026.01.14 16:15
1,5,Environment Title[],Latitude[deg],Longitude[deg],Time Zone[],Elevation[m]
2,8,Day of Simulation[],Month[],Day of Month[],DST Indicator[1=yes 0=no],Hour[],StartMinute[],EndMinute[],DayType
3,5,Cumulative Day of Simulation[],Month[],Day of Month[],DST Indicator[1=yes 0=no],DayType  ! When Daily Report Variables Requested
4,2,Cumulative Days of Simulation[],Month[]  ! When Monthly Report Variables Requested
5,1,Cumulative Days of Simulation[] ! When Run Period Report Variables Requested
6,1,Calendar Year of Simulation[] ! When Annual Report Variables Requested
7,1,Environment,Site Outdoor Air Drybulb Temperature [C] !Hourly
8,1,Z1,Zone Operative Temperature [C] !Hourly
9,1,Z2,Zone Operative Temperature [C] !Hourly
10,1,Z3,Zone Operative Temperature [C] !Hourly
11,1,Z4,Zone Operative Temperature [C] !Hourly
12,1,Z1,Zone Air Temperature [C] !Hourly
147,1,Z2,Zone Air Temperature [C] !Hourly
210,1,Z3,Zone Air Temperature [C] !Hourly
273,1,Z4,Zone Air Temperature [C] !Hourly
336,1,HOT WATER LOOP,Plant Supply Side Outlet Temperature [C] !Hourly
399,1,Z1 RADIATOR,Baseboard Total Heating Rate [W] !Hourly
400,1,Z1 RADIATOR,Baseboard Hot Water Mass Flow Rate [kg/s] !Hourly
403,1,Z2 RADIATOR,Baseboard Total Heating Rate [W] !Hourly
404,1,Z2 RADIATOR,Baseboard Hot Water Mass Flow Rate [kg/s] !Hourly
407,1,Z3 RADIATOR,Baseboard Total Heating Rate [W] !Hourly
408,1,Z3 RADIATOR,Baseboard Hot Water Mass Flow Rate [kg/s] !Hourly
411,1,Z4 RADIATOR,Baseboard Total Heating Rate [W] !Hourly
412,1,Z4 RADIATOR,Baseboard Hot Water Mass Flow Rate [kg/s] !Hourly
413,1,HEAT PUMP,Heat Pump Load Side Heat Transfer Rate [W] !Hourly
427,1,HEAT PUMP,Heat Pump Load Side Inlet Temperature [C] !Hourly
428,1,HEAT PUMP,Heat Pump Electricity Rate [W] !Hourly
503,1,SUPPLY PUMP,Pump Electricity Rate [W] !Hourly
504,1,SUPPLY PUMP,Pump Fluid Heat Gain Rate [W] !Hourly
505,1,SUPPLY PUMP,Pump Mass Flow Rate [kg/s] !Hourly
533,1,Baseboard Total Heating Rate All Zones,PythonPlugin:OutputVariable [W] !Hourly
End of Data Dictionary
1,WINTER DESIGN DAY IN (MID) UK,  53.35,  -2.28,   0.00,  69.00
2,1, 1,15, 0, 1, 0.00,60.00,WinterDesignDay
7,-3.0
8,19.90669557941636
9,19.90669557941636
10,18.000006132988318
11,18.000006132988318
12,20.999582038693255
147,20.999582038693255
210,18.544012721532642
273,18.544012721532642
336,53.40025684265309
399,505.13288296085165
400,0.029496
403,505.13288296085165
404,0.029496
407,353.4899331235174
408,0.0035249736328125
411,353.4899331235174
412,0.0035249736328125
413,1714.7140490481054
427,50.24523553023046
428,775.0837846000206
503,1.9737082497563994
504,1.9737082497563994
505,0.12998674
533,1717.245632168738
2,1, 1,15, 0, 2, 0.00,60.00,WinterDesignDay
7,-3.0
8,19.906730342340673
9,19.906730342340673
10,17.999710218194835
11,17.999710218194835
12,20.999618657026346
147,20.999618657026346
210,18.543415254980946
273,18.543415254980946
336,53.40032298103321
399,505.1333018239528
400,0.029496
403,505.1333018239528
404,0.029496
407,353.3290408858854
408,0.0035213730468750004
411,353.3290408858854
412,0.0035213730468750004
413,1714.435487041695
427,50.24581439091881
428,774.9589032949941
503,1.9737087817515038
504,1.9737087817515038
505,0.12998674
533,1716.9246854196765
2,1, 1,15, 0, 3, 0.00,60.00,WinterDesignDay
7,-3.0
8,19.906748077762117
9,19.906748077762117
10,17.99985732037711
11,17.99985732037711
12,20.999641218971068
147,20.999641218971068
210,18.5437115257694
273,18.5437115257694
336,53.40038356381649
399,505.13386117100384
400,0.029496
403,505.13386117100384
404,0.029496
407,353.32476054094917
408,0.003521373046875
411,353.32476054094917
412,0.003521373046875
413,1714.4715378035226
427,50.24580863563935
428,774.9761461134545
503,1.9737087764622558
504,1.9737087764622558
505,0.12998674
533,1716.917243423906
2,1, 1,15, 0, 4, 0.00,60.00,WinterDesignDay
7,-3.0
8,19.90678525689494
9,19.90678525689494
10,17.999744092683386
11,17.999744092683386
12,20.99967647601998
147,20.99967647601998
210,18.543447698328308
273,18.543447698328308
336,53.40044012409001
399,505.13424258548065
400,0.029496
403,505.13424258548065
404,0.029496
407,353.329376402204
408,0.003521373046875
411,353.329376402204
412,0.003521373046875
413,1714.4371947019033
427,50.24592842645361
428,774.9615065808506
503,1.9737088865545553
504,1.9737088865545553
505,0.12998674
533,1716.9272379753693
2,1, 1,15, 0, 5, 0.00,60.00,WinterDesignDay
7,-3.0
8,19.906802723278
9,19.906802723278
10,17.99966270112079
11,17.99966270112079
12,20.99969769732705
147,20.99969769732705
210,18.54335624070785
273,18.54335624070785
336,53.40049148009098
399,505.1346648343849
400,0.029496
403,505.1346648343849
404,0.029496
407,353.331288609126
408,0.003521373046875
411,353.331288609126
412,0.003521373046875
413,1714.4422237158456
427,50.2459705387725
428,774.9645827225428
503,1.9737089252574007
504,1.9737089252574007
505,0.12998674
533,1716.9319068870218
2,1, 1,15, 0, 6, 0.00,60.00,WinterDesignDay
7,-3.0
8,19.906821899461285
9,19.906821899461285
10,18.000005956995313
11,18.000005956995313
12,20.999716768999534
147,20.999716768999534
210,18.54401461585693
273,18.54401461585693
336,53.40053955099113
399,505.1351719381559
400,0.029496
403,505.1351719381559
404,0.029496
407,353.4928517164768
408,0.0035249736328125
411,353.4928517164768
412,0.0035249736328125
413,1714.7235356634062
427,50.24550086728452
428,775.0924934393489
503,1.973708493611244
504,1.973708493611244
505,0.12998674
533,1717.2560473092658
2,1, 1,15, 0, 7, 0.00,60.00,WinterDesignDay
7,-3.0
8,19.90684866735908
9,19.90684866735908
10,17.999726305756816
11,17.999726305756816
12,20.999744180506994
147,20.999744180506994
210,18.54343456662774
273,18.54343456662774
336,53.40058432063661
399,505.1354071881775
400,0.029496
403,505.1354071881775
404,0.029496
407,353.3315499537985
408,0.0035213730468750004
411,353.3315499537985
412,0.0035213730468750004
413,1714.4438463331849
427,50.24606042178081
428,774.9667677393434
503,1.9737090078633464
504,1.9737090078633464
505,0.12998674
533,1716.9339142839522
2,1, 1,15, 0, 8, 0.00,60.00,WinterDesignDay
7,-3.0
8,19.90685980668003
9,19.90685980668003
10,17.999652259368936
11,17.999652259368936
12,20.999759068788602
147,20.999759068788602
210,18.54334551719562
273,18.54334551719562
336,53.4006249757293
399,505.13577918038607
400,0.029496
403,505.13577918038607
404,0.029496
407,353.332808458218
408,0.0035213730468750004
411,353.332808458218
412,0.0035213730468750004
413,1714.447073387917
427,50.24609514598669
428,774.9688620577526
503,1.9737090397762338
504,1.9737090397762338
505,0.12998674
533,1716.937175277208
2,1, 1,15, 0, 9, 0.00,60.00,WinterDesignDay
7,-3.0
8,19.906877195510088
9,19.906877195510088
10,17.999922201410328
11,17.999922201410328
12,20.99977676382303
147,20.99977676382303
210,18.543781632702732
273,18.543781632702732
336,53.40066332882621
399,505.1361365665192
400,0.029496
403,505.1361365665192
404,0.029496
407,353.3264670808111
408,0.003521373046875
411,353.3264670808111
412,0.003521373046875
413,1714.4779920588537
427,50.24607660003909
428,774.9834375885644
503,1.9737090227318663
504,1.9737090227318663
505,0.12998674
533,1716.9252072946606
2,1, 1,15, 0,10, 0.00,60.00,WinterDesignDay
7,-3.0
8,19.90689991296935
9,19.90689991296935
10,17.99972553235688
11,17.99972553235688
12,20.99979918964291
147,20.99979918964291
210,18.54343162492412
273,18.54343162492412
336,53.400698342412625
399,505.13630660187243
400,0.029496
403,505.13630660187243
404,0.029496
407,353.3326657652452
408,0.003521373046875
411,353.3326657652452
412,0.003521373046875
413,1714.4476165342164
427,50.24616753860254
428,774.9702545784551
503,1.973709106307855
504,1.973709106307855
505,0.12998674
533,1716.9379447342353
2,1, 1,15, 0,11, 0.00,60.00,WinterDesignDay
7,-3.0
8,19.90690789958613
9,19.90690789958613
10,17.99965711228395
11,17.99965711228395
12,20.999810142509364
147,20.999810142509364
210,18.543350445721394
273,18.543350445721394
336,53.40073022336024
399,505.13661597779793
400,0.029496
403,505.13661597779793
404,0.029496
407,353.3338643184364
408,0.003521373046875
411,353.3338643184364
412,0.003521373046875
413,1714.450506501875
427,50.24619410209871
428,774.9720593539923
503,1.9737091307207364
504,1.9737091307207364
505,0.12998674
533,1716.9409605924686
2,1, 1,15, 0,12, 0.00,60.00,WinterDesignDay
7,-3.0
8,19.906920004196028
9,19.906920004196028
10,18.00001581259476
11,18.00001581259476
12,20.99982116495773
147,20.99982116495773
210,18.544026807961732
273,18.544026807961732
336,53.40076046860901
399,505.1369775091736
400,0.029496
403,505.1369775091736
404,0.029496
407,353.49501722414294
408,0.0035249736328125
411,353.49501722414294
412,0.0035249736328125
413,1714.730755175364
427,50.24570855253293
428,775.0992113167474
503,1.9737086844819278
504,1.9737086844819278
505,0.12998674
533,1717.2639894666331
2,1, 1,15, 0,13, 0.00,60.00,WinterDesignDay
7,-3.0
8,19.90694117245733
9,19.90694117245733
10,17.999746817044304
11,17.999746817044304
12,20.99984206362273
147,20.99984206362273
210,18.54345776447673
273,18.54345776447673
336,53.400788667556256
399,505.13705964467135
400,0.029496
403,505.13705964467135
404,0.029496
407,353.3334239546158
408,0.0035213730468750004
411,353.3334239546158
412,0.0035213730468750004
413,1714.450224083563
427,50.246253087844806
428,774.9728454705231
503,1.9737091849309192
504,1.9737091849309192
505,0.12998674
533,1716.9409671985745
2,1, 1,15, 0,14, 0.00,60.00,WinterDesignDay
7,-3.0
8,19.906947565593867
9,19.906947565593867
10,17.999680575627924
11,17.999680575627924
12,20.999851396019245
147,20.999851396019245
210,18.54337641758876
273,18.54337641758876
336,53.40081377411147
399,505.1372780513626
400,0.029496
403,505.1372780513626
404,0.029496
407,353.33443843395514
408,0.0035213730468750004
411,353.33443843395514
412,0.0035213730468750004
413,1714.4526962474847
427,50.24627364975184
428,774.9743554752578
503,1.9737092038281099
504,1.9737092038281099
505,0.12998674
533,1716.943432970636
2,1, 1,15, 0,15, 0.00,60.00,WinterDesignDay
7,-3.0
8,19.906949598610694
9,19.906949598610694
10,17.999864580280438
11,17.999864580280438
12,20.99985610537648
147,20.99985610537648
210,18.54372187054865
273,18.54372187054865
336,53.400837454027624
399,505.1375590850664
400,0.029496
403,505.1375590850664
404,0.029496
407,353.3293947559339
408,0.003521373046875
411,353.3293947559339
412,0.003521373046875
413,1714.4867210086827
427,50.246234720429165
428,774.9901057135606
503,1.9737091680506238
504,1.9737091680506238
505,0.12998674
533,1716.9339076820006
2,1, 1,15, 0,16, 0.00,60.00,WinterDesignDay
7,-3.0
8,19.90697444576
9,19.90697444576
10,17.999775948312738
11,17.999775948312738
12,20.99987708371691
147,20.99987708371691
210,18.543484414314868
273,18.543484414314868
336,53.40085992028315
399,505.13764190580326
400,0.029496
403,505.13764190580326
404,0.029496
407,353.3333394623885
408,0.003521373046875
411,353.3333394623885
412,0.003521373046875
413,1714.4505284970503
427,50.246323793881785
428,774.9740970448089
503,1.9737092499125146
504,1.9737092499125146
505,0.12998674
533,1716.9419627363836
2,1, 1,15, 0,17, 0.00,60.00,WinterDesignDay
7,-3.0
8,19.906981680862895
9,19.906981680862895
10,17.9997125788561
11,17.9997125788561
12,20.999886371835693
147,20.999886371835693
210,18.543411305988315
273,18.543411305988315
336,53.4008794212066
399,505.1377592229004
400,0.029496
403,505.1377592229004
404,0.029496
407,353.33472765426967
408,0.003521373046875
411,353.33472765426967
412,0.003521373046875
413,1714.4539900092416
427,50.246336937506896
428,774.9759666223878
503,1.9737092619920182
504,1.9737092619920182
505,0.12998674
533,1716.9449737543403
2,1, 1,15, 0,18, 0.00,60.00,WinterDesignDay
7,-3.0
8,19.906983222547034
9,19.906983222547034
10,17.999660652583696
11,17.999660652583696
12,20.999890294288655
147,20.999890294288655
210,18.54335427876696
273,18.54335427876696
336,53.400897514007994
399,505.1379640043073
400,0.029496
403,505.1379640043073
404,0.029496
407,353.33556653331794
408,0.003521373046875
411,353.33556653331794
412,0.003521373046875
413,1714.4560582837437
427,50.24635123652458
428,774.9771844068173
503,1.9737092751333716
504,1.9737092751333716
505,0.12998674
533,1716.9470610752508
2,1, 1,15, 0,19, 0.00,60.00,WinterDesignDay
7,-3.0
8,19.90699057813716
9,19.90699057813716
10,18.00002902138086
11,18.00002902138086
12,20.999895878736073
147,20.999895878736073
210,18.544041682016363
273,18.544041682016363
336,53.40091504654643
399,505.13821562869964
400,0.029496
403,505.13821562869964
404,0.029496
407,353.4964647376305
408,0.0035249736328125
411,353.4964647376305
412,0.0035249736328125
413,1714.7356133975436
427,50.24585423734332
428,775.1038244992862
503,1.9737088183718616
504,1.9737088183718616
505,0.12998674
533,1717.2693607326605
2,1, 1,15, 0,20, 0.00,60.00,WinterDesignDay
7,-3.0
8,19.907007886902157
9,19.907007886902157
10,17.999766632021025
11,17.999766632021025
12,20.999912284200715
147,20.999912284200715
210,18.543479336326087
273,18.543479336326087
336,53.400931382532875
399,505.1381850641669
400,0.029496
403,505.1381850641669
404,0.029496
407,353.3346761639875
408,0.0035213730468750004
411,353.3346761639875
412,0.0035213730468750004
413,1714.4544964277766
427,50.246387978816216
428,774.9770079447908
503,1.9737093089009639
504,1.9737093089009639
505,0.12998674
533,1716.9457224563089
2,1, 1,15, 0,21, 0.00,60.00,WinterDesignDay
7,-3.0
8,19.907010950194554
9,19.907010950194554
10,17.999705191041027
11,17.999705191041027
12,20.99991772614958
147,20.99991772614958
210,18.54340266671407
273,18.54340266671407
336,53.40094533262892
399,505.1382916736732
400,0.029496
403,505.1382916736732
404,0.029496
407,353.3355254584593
408,0.0035213730468750004
411,353.3355254584593
412,0.0035213730468750004
413,1714.456439767825
427,50.246398361350984
428,774.9781044862067
503,1.973709318442918
504,1.973709318442918
505,0.12998674
533,1716.9476342642652
2,1, 1,15, 0,22, 0.00,60.00,WinterDesignDay
7,-3.0
8,19.90701000461912
9,19.90701000461912
10,17.999659126318583
11,17.999659126318583
12,20.999918956357487
147,20.999918956357487
210,18.543352966333398
273,18.543352966333398
336,53.4009584700035
399,505.1384632679609
400,0.029496
403,505.1384632679609
404,0.029496
407,353.33621318855756
408,0.0035213730468750004
411,353.33621318855756
412,0.0035213730468750004
413,1714.458152697706
427,50.24640835511192
428,774.9790841708186
503,1.973709327627573
504,1.973709327627573
505,0.12998674
533,1716.949352913037
2,1, 1,15, 0,23, 0.00,60.00,WinterDesignDay
7,-3.0
8,19.90700679796919
9,19.90700679796919
10,17.999856553685046
11,17.999856553685046
12,20.99991771711751
147,20.99991771711751
210,18.54371496991482
273,18.54371496991482
336,53.40097145905179
399,505.1386773204042
400,0.029496
403,505.1386773204042
404,0.029496
407,353.33086964215835
408,0.003521373046875
411,353.33086964215835
412,0.003521373046875
413,1714.4914818648872
427,50.246360000501625
428,774.9943528846754
503,1.9737092831878758
504,1.9737092831878758
505,0.12998674
533,1716.9390939251255
2,1, 1,15, 0,24, 0.00,60.00,WinterDesignDay
7,-3.0
8,19.90702773168355
9,19.90702773168355
10,17.999776918265688
11,17.999776918265688
12,20.999934159422153
147,20.999934159422153
210,18.543486985599973
273,18.543486985599973
336,53.40098415993121
399,505.1386825102915
400,0.029496
403,505.1386825102915
404,0.029496
407,353.3345996304277
408,0.003521373046875
411,353.3345996304277
412,0.003521373046875
413,1714.4547389909317
427,50.246440326155046
428,774.977942723397
503,1.9737093570102067
504,1.9737093570102067
505,0.12998674
533,1716.9465642814384
End of Data
 Number of Records Written=         600
