Program Version,EnergyPlus, Version 24.2.0-94a887817b, YMD=2025.06.28 13:51
1,5,Environment Title[],Latitude[deg],Longitude[deg],Time Zone[],Elevation[m]
2,8,Day of Simulation[],Month[],Day of Month[],DST Indicator[1=yes 0=no],Hour[],StartMinute[],EndMinute[],DayType
3,5,Cumulative Day of Simulation[],Month[],Day of Month[],DST Indicator[1=yes 0=no],DayType  ! When Daily Report Variables Requested
4,2,Cumulative Days of Simulation[],Month[]  ! When Monthly Report Variables Requested
5,1,Cumulative Days of Simulation[] ! When Run Period Report Variables Requested
6,1,Calendar Year of Simulation[] ! When Annual Report Variables Requested
7,1,Z1,Zone Air Temperature [C] !Hourly
142,1,Z2,Zone Air Temperature [C] !Hourly
205,1,Z3,Zone Air Temperature [C] !Hourly
268,1,Z4,Zone Air Temperature [C] !Hourly
393,1,Z1 RADIATOR,Baseboard Total Heating Rate [W] !Hourly
396,1,Z2 RADIATOR,Baseboard Total Heating Rate [W] !Hourly
399,1,Z3 RADIATOR,Baseboard Total Heating Rate [W] !Hourly
402,1,Z4 RADIATOR,Baseboard Total Heating Rate [W] !Hourly
403,1,HEAT PUMP,Heat Pump Load Side Heat Transfer Rate [W] !Hourly
417,1,HEAT PUMP,Heat Pump Electricity Rate [W] !Hourly
492,1,SUPPLY PUMP,Pump Electricity Rate [W] !Hourly
493,1,SUPPLY PUMP,Pump Fluid Heat Gain Rate [W] !Hourly
End of Data Dictionary
1,WINTER DESIGN DAY IN (MID) UK,  53.35,  -2.28,   0.00,  69.00
2,1, 1,15, 0, 1, 0.00,60.00,WinterDesignDay
7,19.44109068968016
142,17.999870255872583
205,17.999870255872583
268,19.44109068968016
393,452.01570915911554
396,352.15316452501764
399,352.15316452501764
402,452.01570915911554
403,1604.0994285191964
417,458.3141224340561
492,4.031271296460882
493,4.031271296460882
2,1, 1,15, 0, 2, 0.00,60.00,WinterDesignDay
7,19.441090806871088
142,18.000142622412387
205,18.000142622412387
268,19.441090806871088
393,452.0157177328063
396,352.32351304098927
399,352.32351304098927
402,452.0157177328063
403,1604.4089918134114
417,458.40256908954603
492,4.031508204762305
493,4.031508204762305
2,1, 1,15, 0, 3, 0.00,60.00,WinterDesignDay
7,19.441090132401754
142,17.99984188788197
205,17.99984188788197
268,19.441090132401754
393,452.0156641218713
396,352.1539697721778
399,352.1539697721778
402,452.0156641218713
403,1604.1011502782387
417,458.31461436521107
492,4.031271293537562
493,4.031271293537562
2,1, 1,15, 0, 4, 0.00,60.00,WinterDesignDay
7,19.44109434983641
142,18.000058097495888
205,18.000058097495888
268,19.44109434983641
393,452.0156720100077
396,352.32593943972785
399,352.32593943972785
402,452.0156720100077
403,1604.4136839858045
417,458.40390971022987
492,4.03150819680585
493,4.03150819680585
2,1, 1,15, 0, 5, 0.00,60.00,WinterDesignDay
7,19.441093729297773
142,17.99958670947304
205,17.99958670947304
268,19.441093729297773
393,452.01571064915106
396,352.155759291268
399,352.155759291268
402,452.01571064915106
403,1604.0888279826445
417,458.31109370932694
492,4.0312713144360615
493,4.0312713144360615
2,1, 1,15, 0, 6, 0.00,60.00,WinterDesignDay
7,19.441090689656683
142,17.999870255847934
205,17.999870255847934
268,19.441090689656683
393,452.01570915942136
396,352.15316452525985
399,352.15316452525985
402,452.01570915942136
403,1604.0994285203012
417,458.3141224343718
492,4.03127129646088
493,4.03127129646088
2,1, 1,15, 0, 7, 0.00,60.00,WinterDesignDay
7,19.44109080685028
142,18.000142622390495
205,18.000142622390495
268,19.44109080685028
393,452.0157177330798
396,352.3235130412035
399,352.3235130412035
402,452.0157177330798
403,1604.40899181439
417,458.40256908982576
492,4.0315082047623045
493,4.0315082047623045
2,1, 1,15, 0, 8, 0.00,60.00,WinterDesignDay
7,19.4410901323833
142,17.999841887862594
205,17.999841887862594
268,19.4410901323833
393,452.0156641221125
396,352.1539697723687
399,352.1539697723687
402,452.0156641221125
403,1604.1011502791052
417,458.31461436545874
492,4.03127129353756
493,4.03127129353756
2,1, 1,15, 0, 9, 0.00,60.00,WinterDesignDay
7,19.441094349820055
142,18.000058097478654
205,18.000058097478654
268,19.441094349820055
393,452.0156720102224
396,352.3259394398967
399,352.3259394398967
402,452.0156720102224
403,1604.4136839865726
417,458.4039097104493
492,4.031508196805849
493,4.031508196805849
2,1, 1,15, 0,10, 0.00,60.00,WinterDesignDay
7,19.441093729283264
142,17.999586709457795
205,17.999586709457795
268,19.441093729283264
393,452.0157106493391
396,352.15575929141727
399,352.15575929141727
402,452.0157106493391
403,1604.0888279833198
417,458.31109370952
492,4.031271314436061
493,4.031271314436061
2,1, 1,15, 0,11, 0.00,60.00,WinterDesignDay
7,19.441090689643826
142,17.999870255834445
205,17.999870255834445
268,19.441090689643826
393,452.0157091595904
396,352.15316452539264
399,352.15316452539264
402,452.0157091595904
403,1604.0994285209058
417,458.3141224345445
492,4.031271296460879
493,4.031271296460879
2,1, 1,15, 0,12, 0.00,60.00,WinterDesignDay
7,19.441090806838876
142,18.00014262237852
205,18.00014262237852
268,19.441090806838876
393,452.015717733228
396,352.32351304132095
399,352.32351304132095
402,452.015717733228
403,1604.40899181492
417,458.40256908997713
492,4.031508204762304
493,4.031508204762304
2,1, 1,15, 0,13, 0.00,60.00,WinterDesignDay
7,19.441090132373205
142,17.999841887851993
205,17.999841887851993
268,19.441090132373205
393,452.0156641222454
396,352.1539697724731
399,352.1539697724731
402,452.0156641222454
403,1604.101150279576
417,458.3146143655932
492,4.031271293537559
493,4.031271293537559
2,1, 1,15, 0,14, 0.00,60.00,WinterDesignDay
7,19.441094349811095
142,18.00005809746923
205,18.00005809746923
268,19.441094349811095
393,452.0156720103382
396,352.32593943998893
399,352.32593943998893
402,452.0156720103382
403,1604.4136839869902
417,458.40390971056866
492,4.031508196805849
493,4.031508196805849
2,1, 1,15, 0,15, 0.00,60.00,WinterDesignDay
7,19.441093729275323
142,17.999586709449453
205,17.999586709449453
268,19.441093729275323
393,452.0157106494436
396,352.15575929149895
399,352.15575929149895
402,452.0157106494436
403,1604.088827983688
417,458.31109370962514
492,4.03127131443606
493,4.03127131443606
2,1, 1,15, 0,16, 0.00,60.00,WinterDesignDay
7,19.44109068963679
142,17.999870255827062
205,17.999870255827062
268,19.44109068963679
393,452.01570915968256
396,352.15316452546483
399,352.15316452546483
402,452.01570915968256
403,1604.0994285212328
417,458.31412243463797
492,4.031271296460879
493,4.031271296460879
2,1, 1,15, 0,17, 0.00,60.00,WinterDesignDay
7,19.441090806832644
142,18.000142622371957
205,18.000142622371957
268,19.441090806832644
393,452.01571773331057
396,352.32351304138524
399,352.32351304138524
402,452.01571773331057
403,1604.4089918152113
417,458.40256909006035
492,4.031508204762304
493,4.031508204762304
2,1, 1,15, 0,18, 0.00,60.00,WinterDesignDay
7,19.44109013236768
142,17.999841887846188
205,17.999841887846188
268,19.44109013236768
393,452.0156641223176
396,352.15396977253016
399,352.15396977253016
402,452.0156641223176
403,1604.1011502798378
417,458.31461436566804
492,4.031271293537559
493,4.031271293537559
2,1, 1,15, 0,19, 0.00,60.00,WinterDesignDay
7,19.4410943498062
142,18.00005809746406
205,18.00005809746406
268,19.4410943498062
393,452.01567201040274
396,352.3259394400396
399,352.3259394400396
402,452.01567201040274
403,1604.4136839872185
417,458.4039097106339
492,4.031508196805848
493,4.031508196805848
2,1, 1,15, 0,20, 0.00,60.00,WinterDesignDay
7,19.44109372927098
142,17.99958670944488
205,17.99958670944488
268,19.44109372927098
393,452.0157106495006
396,352.1557592915437
399,352.1557592915437
402,452.0157106495006
403,1604.0888279838948
417,458.31109370968426
492,4.03127131443606
493,4.03127131443606
2,1, 1,15, 0,21, 0.00,60.00,WinterDesignDay
7,19.441090689632937
142,17.999870255823023
205,17.999870255823023
268,19.441090689632937
393,452.01570915973286
396,352.15316452550485
399,352.15316452550485
402,452.01570915973286
403,1604.0994285214178
417,458.31412243469083
492,4.031271296460878
493,4.031271296460878
2,1, 1,15, 0,22, 0.00,60.00,WinterDesignDay
7,19.441090806829216
142,18.000142622368365
205,18.000142622368365
268,19.441090806829216
393,452.0157177333533
396,352.32351304142054
399,352.32351304142054
402,452.0157177333533
403,1604.4089918153707
417,458.40256909010594
492,4.031508204762302
493,4.031508204762302
2,1, 1,15, 0,23, 0.00,60.00,WinterDesignDay
7,19.441090132364643
142,17.999841887843004
205,17.999841887843004
268,19.441090132364643
393,452.0156641223575
396,352.1539697725614
399,352.1539697725614
402,452.0156641223575
403,1604.1011502799797
417,458.3146143657085
492,4.031271293537558
493,4.031271293537558
2,1, 1,15, 0,24, 0.00,60.00,WinterDesignDay
7,19.441094349803503
142,18.000058097461228
205,18.000058097461228
268,19.441094349803503
393,452.015672010438
396,352.3259394400673
399,352.3259394400673
402,452.015672010438
403,1604.4136839873465
417,458.4039097106704
492,4.031508196805847
493,4.031508196805847
End of Data
 Number of Records Written=         288
