Program Version,EnergyPlus, Version 24.2.0-94a887817b, YMD=2026.01.14 16:17
1,5,Environment Title[],Latitude[deg],Longitude[deg],Time Zone[],Elevation[m]
2,8,Day of Simulation[],Month[],Day of Month[],DST Indicator[1=yes 0=no],Hour[],StartMinute[],EndMinute[],DayType
3,5,Cumulative Day of Simulation[],Month[],Day of Month[],DST Indicator[1=yes 0=no],DayType  ! When Daily Report Variables Requested
4,2,Cumulative Days of Simulation[],Month[]  ! When Monthly Report Variables Requested
5,1,Cumulative Days of Simulation[] ! When Run Period Report Variables Requested
6,1,Calendar Year of Simulation[] ! When Annual Report Variables Requested
7,1,Environment,Site Outdoor Air Drybulb Temperature [C] !Hourly
8,1,Z1,Zone Operative Temperature [C] !Hourly
9,1,Z2,Zone Operative Temperature [C] !Hourly
10,1,Z3,Zone Operative Temperature [C] !Hourly
11,1,Z4,Zone Operative Temperature [C] !Hourly
12,1,Z1,Zone Air Temperature [C] !Hourly
147,1,Z2,Zone Air Temperature [C] !Hourly
210,1,Z3,Zone Air Temperature [C] !Hourly
273,1,Z4,Zone Air Temperature [C] !Hourly
336,1,HOT WATER LOOP,Plant Supply Side Outlet Temperature [C] !Hourly
399,1,Z1 RADIATOR,Baseboard Total Heating Rate [W] !Hourly
400,1,Z1 RADIATOR,Baseboard Hot Water Mass Flow Rate [kg/s] !Hourly
403,1,Z2 RADIATOR,Baseboard Total Heating Rate [W] !Hourly
404,1,Z2 RADIATOR,Baseboard Hot Water Mass Flow Rate [kg/s] !Hourly
407,1,Z3 RADIATOR,Baseboard Total Heating Rate [W] !Hourly
408,1,Z3 RADIATOR,Baseboard Hot Water Mass Flow Rate [kg/s] !Hourly
411,1,Z4 RADIATOR,Baseboard Total Heating Rate [W] !Hourly
412,1,Z4 RADIATOR,Baseboard Hot Water Mass Flow Rate [kg/s] !Hourly
413,1,HEAT PUMP,Heat Pump Load Side Heat Transfer Rate [W] !Hourly
427,1,HEAT PUMP,Heat Pump Load Side Inlet Temperature [C] !Hourly
428,1,HEAT PUMP,Heat Pump Electricity Rate [W] !Hourly
503,1,SUPPLY PUMP,Pump Electricity Rate [W] !Hourly
504,1,SUPPLY PUMP,Pump Fluid Heat Gain Rate [W] !Hourly
505,1,SUPPLY PUMP,Pump Mass Flow Rate [kg/s] !Hourly
533,1,Baseboard Total Heating Rate All Zones,PythonPlugin:OutputVariable [W] !Hourly
End of Data Dictionary
1,WINTER DESIGN DAY IN (MID) UK,  53.35,  -2.28,   0.00,  69.00
2,1, 1,15, 0, 1, 0.00,60.00,WinterDesignDay
7,-3.0
8,18.924063009885494
9,17.999734605094815
10,17.99973460509288
11,18.924063009881195
12,20.997648849301292
147,19.573437586959933
210,19.573437586958114
273,20.997648849297306
336,53.997234647662154
399,514.4724765813925
400,0.029496
403,408.04664395167293
404,0.0053216660156250005
407,408.0466439516948
408,0.0053216660156250005
411,514.4724765814556
412,0.029496
413,1842.4358126531179
427,50.60732663217374
428,842.8466629478265
503,1.9740410813282905
504,1.9740410813282905
505,0.12998674
533,1845.0382410662157
2,1, 1,15, 0, 2, 0.00,60.00,WinterDesignDay
7,-3.0
8,18.924119535589412
9,17.999982362028064
10,17.99998236202614
11,18.92411953558549
12,20.99773335521445
147,19.5739117497632
210,19.573911749761404
273,20.99773335521079
336,53.997609510239656
399,514.4769184583685
400,0.029496
403,408.0472965533338
404,0.0053216660156250005
407,408.04729655335484
408,0.0053216660156250005
411,514.4769184584272
412,0.029496
413,1842.4923903774968
427,50.60759748486119
428,842.8788439061962
503,1.9740413303361681
504,1.9740413303361681
505,0.12998674
533,1845.0484300234843
2,1, 1,15, 0, 3, 0.00,60.00,WinterDesignDay
7,-3.0
8,18.924192917101486
9,17.99965716979278
10,17.99965716979067
11,18.92419291709812
12,20.997819595636834
147,19.57320879342739
210,19.57320879342543
273,20.997819595633672
336,53.997970301635036
399,514.4812296670177
400,0.029496
403,407.87493872478814
404,0.005314464843750001
407,407.87493872481105
408,0.005314464843750001
411,514.4812296670692
412,0.029496
413,1842.2001299003675
427,50.608496299323356
428,842.7512054843577
503,1.9740421566600368
504,1.9740421566600368
505,0.12998674
533,1844.7123367836862
2,1, 1,15, 0, 4, 0.00,60.00,WinterDesignDay
7,-3.0
8,18.924272993530764
9,17.999828705544985
10,17.999828705542697
11,18.92427299352795
12,20.997913461245687
147,19.573567051546952
210,19.573567051544828
273,20.997913461243037
336,53.998317074934306
399,514.4852844339422
400,0.029496
403,408.0581387462305
404,0.0053216660156250005
407,408.0581387462553
408,0.0053216660156250005
411,514.4852844339855
412,0.029496
413,1842.4827046425232
427,50.608323105719656
428,842.8863012927283
503,1.9740419974345855
504,1.9740419974345855
505,0.12998674
533,1845.0868463604133
2,1, 1,15, 0, 5, 0.00,60.00,WinterDesignDay
7,-3.0
8,18.92431552139332
9,17.9996431225928
10,17.999643122590545
11,18.924315521390785
12,20.997984396720348
147,19.573208242143377
210,19.57320824214124
273,20.99798439671798
336,53.998649507067455
399,514.489149041111
400,0.029496
403,407.8877867734079
404,0.005314464843750001
407,407.8877867734335
408,0.005314464843750001
411,514.4891490411488
412,0.029496
413,1842.2413478388312
427,50.6090998653521
428,842.7814719688332
503,1.974042711547954
504,1.974042711547954
505,0.12998674
533,1844.753871629101
2,1, 1,15, 0, 6, 0.00,60.00,WinterDesignDay
7,-3.0
8,18.924393482902932
9,17.999856016610266
10,17.999856016608454
11,18.924393482900626
12,20.998069070172882
147,19.57360779862541
210,19.573607798623648
273,20.99806907017072
336,53.9989702518281
399,514.4930627757255
400,0.029496
403,408.06581261776194
404,0.0053216660156250005
407,408.06581261778433
408,0.0053216660156250005
411,514.4930627757602
412,0.029496
413,1842.5125677581095
427,50.6089215318571
428,842.910937745005
503,1.9740425475970675
504,1.9740425475970675
505,0.12998674
533,1845.117750787032
2,1, 1,15, 0, 7, 0.00,60.00,WinterDesignDay
7,-3.0
8,18.924440261473208
9,17.999410071619764
10,17.999410071618623
11,18.92444026147144
12,20.998140241104117
147,19.57278166430182
210,19.57278166430067
273,20.998140241102412
336,53.99927783834623
399,514.4965502566035
400,0.029496
403,407.9044150051263
404,0.005314464843750002
407,407.90441500514186
408,0.005314464843750002
411,514.4965502566325
412,0.029496
413,1842.2420648638602
427,50.60972707942291
428,842.7923560240395
503,1.9740432881769163
504,1.9740432881769163
505,0.12998674
533,1844.8019305235043
2,1, 1,15, 0, 8, 0.00,60.00,WinterDesignDay
7,-3.0
8,18.924478741307436
9,17.999646120215615
10,17.999646120215118
11,18.92447874130643
12,20.998197393597668
147,19.57319151272152
210,19.57319151272098
273,20.998197393596648
336,53.99957473001044
399,514.5003742333217
400,0.029496
403,407.89812989578627
404,0.005314464843750001
407,407.89812989579445
408,0.005314464843750001
411,514.5003742333404
412,0.029496
413,1842.2819931512727
427,50.609950578754706
428,842.8156099426575
503,1.9740434936511746
504,1.9740434936511746
505,0.12998674
533,1844.7970082582428
2,1, 1,15, 0, 9, 0.00,60.00,WinterDesignDay
7,-3.0
8,18.9245200357334
9,17.999813357718995
10,17.99981335771911
11,18.924520035732947
12,20.998256171431848
147,19.573622694151524
210,19.573622694151545
273,20.99825617143137
336,53.99986152879444
399,514.5038135315197
400,0.029496
403,408.08191447663864
404,0.0053216660156250005
407,408.08191447664007
408,0.0053216660156250005
411,514.5038135315291
412,0.029496
413,1842.567109959762
427,50.60971271094023
428,842.9508658348275
503,1.974043274967197
504,1.974043274967197
505,0.12998674
533,1845.1714560163277
2,1, 1,15, 0,10, 0.00,60.00,WinterDesignDay
7,-3.0
8,18.924586288962082
9,17.999475004516746
10,17.999475004517585
11,18.924586288961834
12,20.998326563412757
147,19.572864671766197
210,19.572864671766894
273,20.998326563412498
336,54.000139289821746
399,514.5072417456635
400,0.029496
403,407.9091490462099
404,0.005314464843750002
407,407.909149046204
408,0.005314464843750002
411,514.5072417456679
412,0.029496
413,1842.2708181847902
427,50.61053588620581
428,842.8199826049165
503,1.9740440317536956
504,1.9740440317536956
505,0.12998674
533,1844.8327815837454
2,1, 1,15, 0,11, 0.00,60.00,WinterDesignDay
7,-3.0
8,18.9246144886111
9,17.999408881774038
10,17.999408881775736
11,18.924614488610928
12,20.99837840270989
147,19.57280084465566
210,19.572800844657156
273,20.998378402709708
336,54.00040599818685
399,514.5104427494113
400,0.029496
403,407.9170137500452
404,0.005314464843750002
407,407.91701375002975
408,0.005314464843750002
411,514.5104427494143
412,0.029496
413,1842.2935999357192
427,50.61076075723534
428,842.83488578737
503,1.9740442384890395
504,1.9740442384890395
505,0.12998674
533,1844.8549129989005
2,1, 1,15, 0,12, 0.00,60.00,WinterDesignDay
7,-3.0
8,18.924638352058164
9,17.999662288799975
10,17.999662288802266
11,18.92463835205816
12,20.99842045613171
147,19.573269696020535
210,19.573269696022617
273,20.998420456131683
336,54.000664579412074
399,514.5138078831966
400,0.029496
403,407.9108802953018
404,0.005314464843750001
407,407.9108802952784
408,0.005314464843750001
411,514.513807883198
412,0.029496
413,1842.3341117891869
427,50.610944852848746
428,842.8577638269221
503,1.9740444077376136
504,1.9740444077376136
505,0.12998674
533,1844.8493763569745
2,1, 1,15, 0,13, 0.00,60.00,WinterDesignDay
7,-3.0
8,18.92471315525573
9,17.999486262398413
10,17.99948626240095
11,18.924713155255944
12,20.998500324895883
147,19.572885669134372
210,19.57288566913672
273,20.99850032489604
336,54.00091535743027
399,514.5166139505327
400,0.029496
403,407.9220070573713
404,0.005314464843750001
407,407.9220070573442
408,0.005314464843750001
411,514.5166139505311
412,0.029496
413,1842.3142344948258
427,50.61123230399272
428,842.8528831183197
503,1.9740446720060911
504,1.9740446720060911
505,0.12998674
533,1844.8772420157793
2,1, 1,15, 0,14, 0.00,60.00,WinterDesignDay
7,-3.0
8,18.924748087196072
9,17.99946481697009
10,17.99946481697286
11,18.924748087196527
12,20.998550985712782
147,19.57287662827857
210,19.572876628281136
273,20.99855098571317
336,54.00115447140817
399,514.5194697243171
400,0.029496
403,407.9252609988593
404,0.005314464843750001
407,407.9252609988295
408,0.005314464843750001
411,514.5194697243114
412,0.029496
413,1842.3269666281833
427,50.61144805636561
428,842.8627252931144
503,1.9740448703583278
504,1.9740448703583278
505,0.12998674
533,1844.8894614463175
2,1, 1,15, 0,15, 0.00,60.00,WinterDesignDay
7,-3.0
8,18.924780074290272
9,17.999452966070667
10,17.999452966073562
11,18.924780074291036
12,20.99859708169364
147,19.572870871123556
210,19.57287087112626
273,20.998597081694292
336,54.00138540331291
399,514.5223407838862
400,0.029496
403,407.9282496498698
404,0.005314464843750001
407,407.928249649838
408,0.005314464843750001
411,514.5223407838774
412,0.029496
413,1842.3384516400188
427,50.61165793109498
428,842.871859498435
503,1.974045063306981
504,1.974045063306981
505,0.12998674
533,1844.9011808674713
2,1, 1,15, 0,16, 0.00,60.00,WinterDesignDay
7,-3.0
8,18.9248131495455
9,17.99945669614895
10,17.999456696151732
11,18.924813149546765
12,20.998642700939797
147,19.572882403545332
210,19.572882403547954
273,20.998642700940906
336,54.001608961156094
399,514.5251242077969
400,0.029496
403,407.9308234543032
404,0.005314464843750001
407,407.93082345427183
408,0.005314464843750001
411,514.5251242077816
412,0.029496
413,1842.3488750199465
427,50.611862372131654
428,842.8803841619336
503,1.9740452512601965
504,1.9740452512601965
505,0.12998674
533,1844.9118953241536
2,1, 1,15, 0,17, 0.00,60.00,WinterDesignDay
7,-3.0
8,18.92484871387422
9,17.99947109247818
10,17.999471092480753
11,18.924848713875775
12,20.998689599479857
147,19.572904815608744
210,19.57290481561118
273,20.99868959948126
336,54.001825195550126
399,514.5277782012349
400,0.029496
403,407.93315537328414
404,0.005314464843750001
407,407.9331553732546
408,0.005314464843750001
411,514.5277782012137
412,0.029496
413,1842.35854557579
427,50.61206088389703
428,842.8884414066576
503,1.9740454337623605
504,1.9740454337623605
505,0.12998674
533,1844.9218671489873
2,1, 1,15, 0,18, 0.00,60.00,WinterDesignDay
7,-3.0
8,18.92488701689542
9,17.99949308646974
10,17.999493086472125
11,18.924887016896818
12,20.998738229641525
147,19.5729343849553
210,19.572934384957563
273,20.998738229642825
336,54.002033891396295
399,514.5302883289406
400,0.029496
403,407.93530380271045
404,0.005314464843750001
407,407.93530380268334
408,0.005314464843750001
411,514.5302883289191
412,0.029496
413,1842.3675550515768
427,50.61225306433671
428,842.8960695859371
503,1.9740456104438402
504,1.9740456104438402
505,0.12998674
533,1844.9311842632535
2,1, 1,15, 0,19, 0.00,60.00,WinterDesignDay
7,-3.0
8,18.9249278955724
9,17.999520844391416
10,17.999520844393857
11,18.924927895573422
12,20.998788540561364
147,19.5729691358807
210,19.572969135882985
273,20.998788540562337
336,54.00223477206019
399,514.5326501356285
400,0.029496
403,407.9372938514866
404,0.005314464843750001
407,407.9372938514601
408,0.005314464843750001
411,514.532650135612
412,0.029496
413,1842.3759296663375
427,50.61243858833396
428,842.9032760418286
503,1.9740457810057361
504,1.9740457810057361
505,0.12998674
533,1844.9398879741873
2,1, 1,15, 0,20, 0.00,60.00,WinterDesignDay
7,-3.0
8,18.924971035893282
9,17.99955310992763
10,17.999553109930602
11,18.924971035893982
12,20.99884028839628
147,19.57300779472045
210,19.57300779472319
273,20.998840288396945
336,54.002427573439334
399,514.5348626952726
400,0.029496
403,407.939138695586
404,0.005314464843750001
407,407.93913869555513
408,0.005314464843750001
411,514.534862695261
412,0.029496
413,1842.3837087155298
427,50.612617133731774
428,842.9100743099011
503,1.9740459451518688
504,1.9740459451518688
505,0.12998674
533,1844.9480027816749
2,1, 1,15, 0,21, 0.00,60.00,WinterDesignDay
7,-3.0
8,18.925016075636975
9,17.999588946097155
10,17.999588946100396
11,18.925016075637494
12,20.99889316340775
147,19.573049439592555
210,19.573049439595593
273,20.99889316340824
336,54.00261207179541
399,514.536927133292
400,0.029496
403,407.94084735142144
404,0.005314464843750001
407,407.94084735138557
408,0.005314464843750001
411,514.5369271332836
412,0.029496
413,1842.3909138042945
427,50.61278843708945
428,842.9164705108179
503,1.9740461026400409
504,1.9740461026400409
505,0.12998674
533,1844.9555489693826
2,1, 1,15, 0,22, 0.00,60.00,WinterDesignDay
7,-3.0
8,18.925062645877894
9,17.99962761040628
10,17.99962761040887
11,18.925062645878114
12,20.998946840161167
147,19.573093350374208
210,19.57309335037673
273,20.998946840161402
336,54.00278809331034
399,514.5388457553255
400,0.029496
403,407.9424267686126
404,0.005314464843750001
407,407.9424267685802
408,0.005314464843750001
411,514.5388457553204
412,0.029496
413,1842.3975569956558
427,50.61295228593458
428,842.9224672386558
503,1.9740462532749108
504,1.9740462532749108
505,0.12998674
533,1844.9625450478386
2,1, 1,15, 0,23, 0.00,60.00,WinterDesignDay
7,-3.0
8,18.92511039023782
9,17.999668491646283
10,17.999668491647796
11,18.925110390237684
12,20.999001000915882
147,19.5731389401425
210,19.573138940144045
273,20.999001000915786
336,54.002955516117055
399,514.540621620133
400,0.029496
403,407.9438827665366
404,0.005314464843750001
407,407.9438827665152
408,0.005314464843750001
411,514.5406216201341
412,0.029496
413,1842.4036670433295
427,50.61310852116996
428,842.9280755968729
503,1.9740463969102109
504,1.9740463969102109
505,0.12998674
533,1844.969008773319
2,1, 1,15, 0,24, 0.00,60.00,WinterDesignDay
7,-3.0
8,18.925158973646106
9,17.999711073681326
10,17.999711073681866
11,18.925158973646127
12,20.999055346476563
147,19.573185717826135
210,19.57318571782675
273,20.999055346476553
336,54.0031142688248
399,514.5422582645704
400,0.029496
403,407.9452203973402
404,0.005314464843750001
407,407.94522039733033
408,0.005314464843750001
411,514.5422582645715
412,0.029496
413,1842.4092601071477
427,50.61325703425614
428,842.9333017755037
503,1.9740465334461499
504,1.9740465334461499
505,0.12998674
533,1844.9749573238123
End of Data
 Number of Records Written=         600
