Program Version,EnergyPlus, Version 24.2.0-94a887817b, YMD=2025.12.10 13:32
1,5,Environment Title[],Latitude[deg],Longitude[deg],Time Zone[],Elevation[m]
2,8,Day of Simulation[],Month[],Day of Month[],DST Indicator[1=yes 0=no],Hour[],StartMinute[],EndMinute[],DayType
3,5,Cumulative Day of Simulation[],Month[],Day of Month[],DST Indicator[1=yes 0=no],DayType  ! When Daily Report Variables Requested
4,2,Cumulative Days of Simulation[],Month[]  ! When Monthly Report Variables Requested
5,1,Cumulative Days of Simulation[] ! When Run Period Report Variables Requested
6,1,Calendar Year of Simulation[] ! When Annual Report Variables Requested
7,1,Environment,Site Outdoor Air Drybulb Temperature [C] !Hourly
8,1,Z1,Zone Air Temperature [C] !Hourly
143,1,Z2,Zone Air Temperature [C] !Hourly
206,1,Z3,Zone Air Temperature [C] !Hourly
269,1,Z4,Zone Air Temperature [C] !Hourly
332,1,HOT WATER LOOP,Plant Supply Side Outlet Temperature [C] !Hourly
395,1,Z1 RADIATOR,Baseboard Total Heating Rate [W] !Hourly
396,1,Z1 RADIATOR,Baseboard Hot Water Mass Flow Rate [kg/s] !Hourly
399,1,Z2 RADIATOR,Baseboard Total Heating Rate [W] !Hourly
400,1,Z2 RADIATOR,Baseboard Hot Water Mass Flow Rate [kg/s] !Hourly
403,1,Z3 RADIATOR,Baseboard Total Heating Rate [W] !Hourly
404,1,Z3 RADIATOR,Baseboard Hot Water Mass Flow Rate [kg/s] !Hourly
407,1,Z4 RADIATOR,Baseboard Total Heating Rate [W] !Hourly
408,1,Z4 RADIATOR,Baseboard Hot Water Mass Flow Rate [kg/s] !Hourly
409,1,HEAT PUMP,Heat Pump Load Side Heat Transfer Rate [W] !Hourly
423,1,HEAT PUMP,Heat Pump Load Side Inlet Temperature [C] !Hourly
424,1,HEAT PUMP,Heat Pump Electricity Rate [W] !Hourly
499,1,SUPPLY PUMP,Pump Electricity Rate [W] !Hourly
500,1,SUPPLY PUMP,Pump Fluid Heat Gain Rate [W] !Hourly
501,1,SUPPLY PUMP,Pump Mass Flow Rate [kg/s] !Hourly
529,1,Baseboard Total Heating Rate All Zones,PythonPlugin:OutputVariable [W] !Hourly
End of Data Dictionary
1,WINTER DESIGN DAY IN (MID) UK,  53.35,  -2.28,   0.00,  69.00
2,1, 1,15, 0, 1, 0.00,60.00,WinterDesignDay
7,-3.0
8,20.996782398993503
143,20.996782398993503
206,18.00040081109708
269,18.00040081109708
332,52.939183649458585
395,497.98659752703406
396,0.029496
399,497.98659752703406
400,0.029496
403,335.0684584468092
404,0.0031361103515624997
407,335.0684584468092
408,0.0031361103515624997
409,1663.7064196633905
423,49.87792511641407
424,745.0320788181405
499,1.9733756115151802
500,1.9733756115151802
501,0.12998674
529,1666.1101119476866
2,1, 1,15, 0, 2, 0.00,60.00,WinterDesignDay
7,-3.0
8,20.996980350446293
143,20.996980350446293
206,18.00029057511978
269,18.00029057511978
332,52.93969443820364
395,497.99148992512255
396,0.029496
399,497.99148992512255
400,0.029496
403,335.0751004382182
404,0.0031361103515624997
407,335.0751004382182
408,0.0031361103515624997
409,1663.7022829281834
423,49.878443591219195
424,745.0379756784903
499,1.9733760671423752
500,1.9733760671423752
501,0.12998674
529,1666.1331807266815
2,1, 1,15, 0, 3, 0.00,60.00,WinterDesignDay
7,-3.0
8,20.997160173434466
143,20.997160173434466
206,18.000252015885508
269,18.000252015885508
332,52.940173967886864
395,497.99611505089774
396,0.029496
399,497.99611505089774
400,0.029496
403,335.0804394304869
404,0.0031361103515624997
407,335.0804394304869
408,0.0031361103515624997
409,1663.7211827736387
423,49.878888409073554
424,745.0537147577888
499,1.9733764580412085
500,1.9733764580412085
501,0.12998674
529,1666.1531089627692
2,1, 1,15, 0, 4, 0.00,60.00,WinterDesignDay
7,-3.0
8,20.997324851814017
143,20.997324851814017
206,18.00026309220858
269,18.00026309220858
332,52.94062502093056
395,498.0005557019576
396,0.029496
399,498.0005557019576
400,0.029496
403,335.0847995882769
404,0.0031361103515624997
407,335.0847995882769
408,0.0031361103515624997
409,1663.7376214176975
423,49.87930927646858
424,745.0679197597882
499,1.9733768278929023
500,1.9733768278929023
501,0.12998674
529,1666.170710580469
2,1, 1,15, 0, 5, 0.00,60.00,WinterDesignDay
7,-3.0
8,20.997478865509958
143,20.997478865509958
206,18.000308659635866
269,18.000308659635866
332,52.941049947379824
395,498.00477009078475
396,0.029496
399,498.00477009078475
400,0.029496
403,335.08852789490356
404,0.0031361103515624997
407,335.08852789490356
408,0.0031361103515624997
409,1663.7524187157837
423,49.879707034568064
424,745.0809934530898
499,1.973377177436636
500,1.973377177436636
501,0.12998674
529,1666.1865959713768
2,1, 1,15, 0, 6, 0.00,60.00,WinterDesignDay
7,-3.0
8,20.99762566075507
143,20.99762566075507
206,18.000376334043057
269,18.000376334043057
332,52.941450381265376
395,498.00872516533957
396,0.029496
399,498.00872516533957
400,0.029496
403,335.0917842341593
404,0.0031361103515624997
407,335.0917842341593
408,0.0031361103515624997
409,1663.7658103787867
423,49.880082882469985
424,745.0930661597533
499,1.9733775077261366
500,1.9733775077261366
501,0.12998674
529,1666.2010187989977
2,1, 1,15, 0, 7, 0.00,60.00,WinterDesignDay
7,-3.0
8,20.997767413441007
143,20.997767413441007
206,18.000458607482532
269,18.000458607482532
332,52.94182743146125
395,498.01240010783
396,0.029496
399,498.01240010783
400,0.029496
403,335.0946604978182
404,0.0031361103515624997
407,335.0946604978182
408,0.0031361103515624997
409,1663.7779235556156
423,49.88043769896148
424,745.1042116219767
499,1.9733778195336509
500,1.9733778195336509
501,0.12998674
529,1666.2141212112965
2,1, 1,15, 0, 8, 0.00,60.00,WinterDesignDay
7,-3.0
8,20.997903029242167
143,20.997903029242167
206,17.999872646363485
269,17.999872646363485
332,52.94218187935945
395,498.01578544962297
396,0.029496
399,498.01578544962297
400,0.029496
403,335.005883338537
404,0.00313431005859375
407,335.005883338537
408,0.00313431005859375
409,1663.605696879076
423,49.881109142345906
424,745.0324591732456
499,1.9733784095887037
500,1.9733784095887037
501,0.12998674
529,1666.0433375763198
2,1, 1,15, 0, 9, 0.00,60.00,WinterDesignDay
7,-3.0
8,20.99801335437823
143,20.99801335437823
206,18.00041470971515
269,18.00041470971515
332,52.94251521749266
395,498.01920975789926
396,0.029496
399,498.01920975789926
400,0.029496
403,335.1023113585854
404,0.0031361103515624997
407,335.1023113585854
408,0.0031361103515624997
409,1663.805432991228
423,49.88107495762019
424,745.1269669446536
499,1.973378379547436
500,1.973378379547436
501,0.12998674
529,1666.2430422329694
2,1, 1,15, 0,10, 0.00,60.00,WinterDesignDay
7,-3.0
8,20.99812781208698
143,20.99812781208698
206,17.999936781423376
269,17.999936781423376
332,52.94283073982534
395,498.02237077049415
396,0.029496
399,498.02237077049415
400,0.029496
403,335.01166491999186
404,0.00313431005859375
407,335.01166491999186
408,0.00313431005859375
409,1663.628819253586
423,49.88171554679713
424,745.0526582198306
499,1.9733789424885648
500,1.9733789424885648
501,0.12998674
529,1666.068071380972
2,1, 1,15, 0,11, 0.00,60.00,WinterDesignDay
7,-3.0
8,20.998226090884213
143,20.998226090884213
206,18.000154032267346
269,18.000154032267346
332,52.94312835909795
395,498.0254493974012
396,0.029496
399,498.0254493974012
400,0.029496
403,335.0107574537047
404,0.00313431005859375
407,335.0107574537047
408,0.00313431005859375
409,1663.6581878579861
423,49.881959162582184
424,745.0703259351928
499,1.9733791565748926
500,1.9733791565748926
501,0.12998674
529,1666.0724137022119
2,1, 1,15, 0,12, 0.00,60.00,WinterDesignDay
7,-3.0
8,20.998321628049354
143,20.998321628049354
206,18.000183424958568
269,18.000183424958568
332,52.9434100909209
395,498.0283237970162
396,0.029496
399,498.0283237970162
400,0.029496
403,335.11529658461177
404,0.0031361103515624997
407,335.11529658461177
408,0.0031361103515624997
409,1663.8220576295098
423,49.881939366354246
424,745.1479899571005
499,1.973379139177942
500,1.973379139177942
501,0.12998674
529,1666.2872407632558
2,1, 1,15, 0,13, 0.00,60.00,WinterDesignDay
7,-3.0
8,20.99841240691535
143,20.99841240691535
206,17.999934557633345
269,17.999934557633345
332,52.94367691952577
395,498.0311029455882
396,0.029496
399,498.0311029455882
400,0.029496
403,335.02001977998316
404,0.00313431005859375
407,335.02001977998316
408,0.00313431005859375
409,1663.6609478090002
423,49.88250272601191
424,745.0798845847471
499,1.9733796342512215
500,1.9733796342512215
501,0.12998674
529,1666.1022454511428
2,1, 1,15, 0,14, 0.00,60.00,WinterDesignDay
7,-3.0
8,20.998495422078275
143,20.998495422078275
206,18.000225884380228
269,18.000225884380228
332,52.94392932979164
395,498.03373368942346
396,0.029496
399,498.03373368942346
400,0.029496
403,335.01793442435473
404,0.00313431005859375
407,335.01793442435473
408,0.00313431005859375
409,1663.6872260707282
423,49.88270681158532
424,745.0954827206658
499,1.97337981359905
500,1.97337981359905
501,0.12998674
529,1666.1033362275566
2,1, 1,15, 0,15, 0.00,60.00,WinterDesignDay
7,-3.0
8,20.99858115322581
143,20.99858115322581
206,17.99995310276489
269,17.99995310276489
332,52.94416817201529
395,498.036108460601
396,0.029496
399,498.036108460601
400,0.029496
403,335.02483801538324
404,0.00313431005859375
407,335.02483801538324
408,0.00313431005859375
409,1663.6797735909402
423,49.88295940503949
424,745.0957686882525
499,1.9733800355749427
500,1.9733800355749427
501,0.12998674
529,1666.1218929519684
2,1, 1,15, 0,16, 0.00,60.00,WinterDesignDay
7,-3.0
8,20.998654013446107
143,20.998654013446107
206,17.999877842985725
269,17.999877842985725
332,52.94439370179926
395,498.03846387309784
396,0.029496
399,498.03846387309784
400,0.029496
403,335.0278520453194
404,0.00313431005859375
407,335.0278520453194
408,0.00313431005859375
409,1663.6899636642986
423,49.88316621371081
424,745.1037540669194
499,1.9733802173158141
500,1.9733802173158141
501,0.12998674
529,1666.1326318368347
2,1, 1,15, 0,17, 0.00,60.00,WinterDesignDay
7,-3.0
8,20.99871847699425
143,20.99871847699425
206,18.000186295847097
269,18.000186295847097
332,52.94460775772062
395,498.0407798024129
396,0.029496
399,498.0407798024129
400,0.029496
403,335.1270926209256
404,0.0031361103515624997
407,335.1270926209256
408,0.0031361103515624997
409,1663.867738588745
423,49.88305314126323
424,745.1866207664426
499,1.9733801179489017
500,1.9733801179489017
501,0.12998674
529,1666.3357448466772
2,1, 1,15, 0,18, 0.00,60.00,WinterDesignDay
7,-3.0
8,20.99878926402677
143,20.99878926402677
206,18.000034506570785
269,18.000034506570785
332,52.94481151803474
395,498.04291617013024
396,0.029496
399,498.04291617013024
400,0.029496
403,335.03015695761604
404,0.00313431005859375
407,335.03015695761604
408,0.00313431005859375
409,1663.7021977378597
423,49.883561577257076
424,745.1155723754371
499,1.973380564756422
500,1.973380564756422
501,0.12998674
529,1666.1461462554926
2,1, 1,15, 0,19, 0.00,60.00,WinterDesignDay
7,-3.0
8,20.998857339420983
143,20.998857339420983
206,17.99999146784229
269,17.99999146784229
332,52.945003894988844
395,498.0448290475368
396,0.029496
399,498.0448290475368
400,0.029496
403,335.03266483634775
404,0.00313431005859375
407,335.03266483634775
408,0.00313431005859375
409,1663.7108971200946
423,49.883737972601416
424,745.1223872315934
499,1.9733807197705258
500,1.9733807197705258
501,0.12998674
529,1666.154987767769
2,1, 1,15, 0,20, 0.00,60.00,WinterDesignDay
7,-3.0
8,20.99891948001924
143,20.99891948001924
206,17.999974019990685
269,17.999974019990685
332,52.94518546692945
395,498.0466791902391
396,0.029496
399,498.0466791902391
400,0.029496
403,335.0346603416784
404,0.00313431005859375
407,335.0346603416784
408,0.00313431005859375
409,1663.7181581386344
423,49.883906209755224
424,745.1283939873636
499,1.9733808676153315
500,1.9733808676153315
501,0.12998674
529,1666.1626790638347
2,1, 1,15, 0,21, 0.00,60.00,WinterDesignDay
7,-3.0
8,20.998976993787984
143,20.998976993787984
206,17.999977028208292
269,17.999977028208292
332,52.945357192733404
395,498.0484542867345
396,0.029496
399,498.0484542867345
400,0.029496
403,335.03632681388297
404,0.00313431005859375
407,335.03632681388297
408,0.00313431005859375
409,1663.724633610472
423,49.88406604140505
424,745.1338995589966
499,1.9733810080735013
500,1.9733810080735013
501,0.12998674
529,1666.1695622012348
2,1, 1,15, 0,22, 0.00,60.00,WinterDesignDay
7,-3.0
8,20.999031478874173
143,20.999031478874173
206,17.999992562779546
269,17.999992562779546
332,52.945519779778415
395,498.0501391501783
396,0.029496
399,498.0501391501783
400,0.029496
403,335.0377703030333
404,0.00313431005859375
407,335.0377703030333
408,0.00313431005859375
409,1663.7305088818644
423,49.88421784229286
424,745.1389976848328
499,1.97338114147435
500,1.97338114147435
501,0.12998674
529,1666.1758189064233
2,1, 1,15, 0,23, 0.00,60.00,WinterDesignDay
7,-3.0
8,20.999084070733485
143,20.999084070733485
206,18.000016354234447
269,18.000016354234447
332,52.94567368864571
395,498.051721515567
396,0.029496
399,498.051721515567
400,0.029496
403,335.0390426705059
404,0.00313431005859375
407,335.0390426705059
408,0.00313431005859375
409,1663.7358514469306
423,49.884361943029354
424,745.1437255775479
499,1.973381268108413
500,1.973381268108413
501,0.12998674
529,1666.1815283721457
2,1, 1,15, 0,24, 0.00,60.00,WinterDesignDay
7,-3.0
8,20.999135441683308
143,20.999135441683308
206,18.000045776184837
269,18.000045776184837
332,52.94581920791816
395,498.05319389760933
396,0.029496
399,498.05319389760933
400,0.029496
403,335.04017492071983
404,0.00313431005859375
407,335.04017492071983
408,0.00313431005859375
409,1663.7407018525298
423,49.884498553943345
424,745.1481057719686
499,1.9733813881605209
500,1.9733813881605209
501,0.12998674
529,1666.1867376366583
End of Data
 Number of Records Written=         504
