Program Version,EnergyPlus, Version 24.2.0-94a887817b, YMD=2025.12.10 13:32
1,5,Environment Title[],Latitude[deg],Longitude[deg],Time Zone[],Elevation[m]
2,8,Day of Simulation[],Month[],Day of Month[],DST Indicator[1=yes 0=no],Hour[],StartMinute[],EndMinute[],DayType
3,5,Cumulative Day of Simulation[],Month[],Day of Month[],DST Indicator[1=yes 0=no],DayType  ! When Daily Report Variables Requested
4,2,Cumulative Days of Simulation[],Month[]  ! When Monthly Report Variables Requested
5,1,Cumulative Days of Simulation[] ! When Run Period Report Variables Requested
6,1,Calendar Year of Simulation[] ! When Annual Report Variables Requested
7,1,Environment,Site Outdoor Air Drybulb Temperature [C] !Hourly
8,1,Z1,Zone Air Temperature [C] !Hourly
143,1,Z2,Zone Air Temperature [C] !Hourly
206,1,Z3,Zone Air Temperature [C] !Hourly
269,1,Z4,Zone Air Temperature [C] !Hourly
332,1,HOT WATER LOOP,Plant Supply Side Outlet Temperature [C] !Hourly
395,1,Z1 RADIATOR,Baseboard Total Heating Rate [W] !Hourly
396,1,Z1 RADIATOR,Baseboard Hot Water Mass Flow Rate [kg/s] !Hourly
399,1,Z2 RADIATOR,Baseboard Total Heating Rate [W] !Hourly
400,1,Z2 RADIATOR,Baseboard Hot Water Mass Flow Rate [kg/s] !Hourly
403,1,Z3 RADIATOR,Baseboard Total Heating Rate [W] !Hourly
404,1,Z3 RADIATOR,Baseboard Hot Water Mass Flow Rate [kg/s] !Hourly
407,1,Z4 RADIATOR,Baseboard Total Heating Rate [W] !Hourly
408,1,Z4 RADIATOR,Baseboard Hot Water Mass Flow Rate [kg/s] !Hourly
409,1,HEAT PUMP,Heat Pump Load Side Heat Transfer Rate [W] !Hourly
423,1,HEAT PUMP,Heat Pump Load Side Inlet Temperature [C] !Hourly
424,1,HEAT PUMP,Heat Pump Electricity Rate [W] !Hourly
499,1,SUPPLY PUMP,Pump Electricity Rate [W] !Hourly
500,1,SUPPLY PUMP,Pump Fluid Heat Gain Rate [W] !Hourly
501,1,SUPPLY PUMP,Pump Mass Flow Rate [kg/s] !Hourly
529,1,Baseboard Total Heating Rate All Zones,PythonPlugin:OutputVariable [W] !Hourly
End of Data Dictionary
1,WINTER DESIGN DAY IN (MID) UK,  53.35,  -2.28,   0.00,  69.00
2,1, 1,15, 0, 1, 0.00,60.00,WinterDesignDay
7,-3.0
8,19.73877642570485
143,18.000519906112466
206,18.000519906112466
269,19.73877642570485
332,49.57
395,465.06088279488006
396,0.029496
399,344.6670334044618
400,0.0042018837890625
403,344.6670334044618
404,0.0042018837890625
407,465.06088279488006
408,0.029496
409,1617.2543076852326
423,46.59374686321537
424,674.5410346070548
499,1.9704937447172157
500,1.9704937447172157
501,0.12998674
529,1619.4558323986837
2,1, 1,15, 0, 2, 0.00,60.00,WinterDesignDay
7,-3.0
8,19.738775808596646
143,18.000574202486035
206,18.000574202486035
269,19.738775808596646
332,49.57
395,465.06089618666863
396,0.029496
399,344.6651401781469
400,0.004201883789062501
403,344.6651401781469
404,0.004201883789062501
407,465.06089618666863
408,0.029496
409,1617.2506150051424
423,46.59375366056606
424,674.5394944261219
499,1.970493750673179
500,1.970493750673179
501,0.12998674
529,1619.452072729631
2,1, 1,15, 0, 3, 0.00,60.00,WinterDesignDay
7,-3.0
8,19.738774728287307
143,18.00074718794869
206,18.00074718794869
269,19.738774728287307
332,49.57
395,465.0608337349417
396,0.029496
399,344.66353667808795
400,0.0042018837890625
403,344.66353667808795
404,0.0042018837890625
407,465.0608337349417
408,0.029496
409,1617.2781559787622
423,46.59370296840775
424,674.5509814982239
499,1.9704937062557784
500,1.9704937062557784
501,0.12998674
529,1619.4487408260593
2,1, 1,15, 0, 4, 0.00,60.00,WinterDesignDay
7,-3.0
8,19.738778522647348
143,18.00048899346629
206,18.00048899346629
269,19.738778522647348
332,49.57
395,465.06077998051285
396,0.029496
399,344.66770556926144
400,0.0042018837890625
403,344.66770556926144
404,0.0042018837890625
407,465.06077998051285
408,0.029496
409,1617.2558700956693
423,46.59374398789208
424,674.5416862732445
499,1.970493742197804
500,1.970493742197804
501,0.12998674
529,1619.4569710995488
2,1, 1,15, 0, 5, 0.00,60.00,WinterDesignDay
7,-3.0
8,19.738767485928967
143,18.000816687420375
206,18.000816687420375
269,19.738767485928967
332,49.57
395,465.06092457936313
396,0.029496
399,344.7834179449556
400,0.0042054843750000005
403,344.7834179449556
404,0.0042054843750000005
407,465.06092457936313
408,0.029496
409,1617.4580828582723
423,46.59337180065165
424,674.6260272488406
499,1.970493416080312
500,1.970493416080312
501,0.12998674
529,1619.6886850486371
2,1, 1,15, 0, 6, 0.00,60.00,WinterDesignDay
7,-3.0
8,19.738765264236733
143,18.00046129193988
206,18.00046129193988
269,19.738765264236733
332,49.57
395,465.06099477946765
396,0.029496
399,344.66812503361535
400,0.0042018837890625
403,344.66812503361535
404,0.0042018837890625
407,465.06099477946765
408,0.029496
409,1617.2570539407336
423,46.593741809247305
424,674.5421800435012
499,1.9704937402888354
500,1.9704937402888354
501,0.12998674
529,1619.458239626166
2,1, 1,15, 0, 7, 0.00,60.00,WinterDesignDay
7,-3.0
8,19.73876491806641
143,18.000490440842533
206,18.000490440842533
269,19.73876491806641
332,49.57
395,465.0610551407981
396,0.029496
399,344.66737745948546
400,0.0042018837890625
403,344.66737745948546
404,0.0042018837890625
407,465.0610551407981
408,0.029496
409,1617.2553449491036
423,46.59374495432582
424,674.5414672397221
499,1.9704937430446112
500,1.9704937430446112
501,0.12998674
529,1619.456865200567
2,1, 1,15, 0, 8, 0.00,60.00,WinterDesignDay
7,-3.0
8,19.738763516874116
143,18.000551654705415
206,18.000551654705415
269,19.738763516874116
332,49.57
395,465.0610866498597
396,0.029496
399,344.6654009608628
400,0.004201883789062501
403,344.6654009608628
404,0.004201883789062501
407,465.0610866498597
408,0.029496
409,1617.2515222400314
423,46.593751990970446
424,674.539872824966
499,1.9704937492102481
500,1.9704937492102481
501,0.12998674
529,1619.4529752214448
2,1, 1,15, 0, 9, 0.00,60.00,WinterDesignDay
7,-3.0
8,19.738762682591478
143,18.000729025569804
206,18.000729025569804
269,19.738762682591478
332,49.57
395,465.06102341861236
396,0.029496
399,344.6637476776989
400,0.0042018837890625
403,344.6637476776989
404,0.0042018837890625
407,465.06102341861236
408,0.029496
409,1617.2789604311902
423,46.59370148796398
424,674.5513170275035
499,1.970493704958586
500,1.970493704958586
501,0.12998674
529,1619.4495421926226
2,1, 1,15, 0,10, 0.00,60.00,WinterDesignDay
7,-3.0
8,19.738767217370192
143,18.00087848701127
206,18.00087848701127
269,19.738767217370192
332,49.57
395,465.06095954751004
396,0.029496
399,344.78268687516277
400,0.0042054843750000005
403,344.78268687516277
404,0.0042054843750000005
407,465.06095954751004
408,0.029496
409,1617.4567119317098
423,46.59337432358483
424,674.6254554487114
499,1.9704934182909524
500,1.9704934182909524
501,0.12998674
529,1619.6872928453456
2,1, 1,15, 0,11, 0.00,60.00,WinterDesignDay
7,-3.0
8,19.738771418961356
143,18.000498845859624
206,18.000498845859624
269,19.738771418961356
332,49.57
395,465.0609175471211
396,0.029496
399,344.66767354179945
400,0.0042018837890625
403,344.66767354179945
404,0.0042018837890625
407,465.0609175471211
408,0.029496
409,1617.2559901522159
423,46.593743766950496
424,674.5417363476619
499,1.9704937420042117
500,1.9704937420042117
501,0.12998674
529,1619.457182177841
2,1, 1,15, 0,12, 0.00,60.00,WinterDesignDay
7,-3.0
8,19.738774026752402
143,18.000516813190124
206,18.000516813190124
269,19.738774026752402
332,49.57
395,465.06092100034135
396,0.029496
399,344.6670684811681
400,0.0042018837890625
403,344.6670684811681
404,0.0042018837890625
407,465.06092100034135
408,0.029496
409,1617.254454800328
423,46.593746592477636
424,674.5410959673296
499,1.9704937444799904
500,1.9704937444799904
501,0.12998674
529,1619.4559789630189
2,1, 1,15, 0,13, 0.00,60.00,WinterDesignDay
7,-3.0
8,19.738773627746582
143,18.00057157134066
206,18.00057157134066
269,19.738773627746582
332,49.57
395,465.0609310487426
396,0.029496
399,344.6651699743674
400,0.004201883789062501
403,344.6651699743674
404,0.004201883789062501
407,465.0609310487426
408,0.029496
409,1617.250744887243
423,46.593753421542424
424,674.5395485986821
499,1.9704937504637419
500,1.9704937504637419
501,0.12998674
529,1619.45220204622
2,1, 1,15, 0,14, 0.00,60.00,WinterDesignDay
7,-3.0
8,19.73877276873337
143,18.000744922634052
206,18.000744922634052
269,19.73877276873337
332,49.57
395,465.0608651358598
396,0.029496
399,344.6635624847171
400,0.0042018837890625
403,344.6635624847171
404,0.0042018837890625
407,465.0608651358598
408,0.029496
409,1617.2782708452194
423,46.59370275701758
424,674.5510294079053
499,1.9704937060705543
500,1.9704937060705543
501,0.12998674
529,1619.448855241154
2,1, 1,15, 0,15, 0.00,60.00,WinterDesignDay
7,-3.0
8,19.738776774685473
143,18.000891745431737
206,18.000891745431737
269,19.738776774685473
332,49.57
395,465.0608080347371
396,0.029496
399,344.7825354805167
400,0.0042054843750000005
403,344.7825354805167
404,0.0042054843750000005
407,465.0608080347371
408,0.029496
409,1617.4561038531242
423,46.593375442639406
424,674.6252018250505
499,1.970493419271489
500,1.970493419271489
501,0.12998674
529,1619.6866870305075
2,1, 1,15, 0,16, 0.00,60.00,WinterDesignDay
7,-3.0
8,19.73878022275135
143,18.000510007817574
206,18.000510007817574
269,19.73878022275135
332,49.57
395,465.06077717187736
396,0.029496
399,344.66754678309997
400,0.0042018837890625
403,344.66754678309997
404,0.0042018837890625
407,465.06077717187736
408,0.029496
409,1617.2554539185157
423,46.593744753788016
424,674.5415126898035
499,1.970493742868897
500,1.970493742868897
501,0.12998674
529,1619.4566479099547
2,1, 1,15, 0,17, 0.00,60.00,WinterDesignDay
7,-3.0
8,19.738770947490444
143,18.00042715865239
206,18.00042715865239
269,19.738770947490444
332,49.57
395,465.06087778720365
396,0.029496
399,344.668423983756
400,0.0042018837890625
403,344.668423983756
404,0.0042018837890625
407,465.06087778720365
408,0.029496
409,1617.257476324944
423,46.5937410319284
424,674.5423562158452
499,1.9704937396077344
500,1.9704937396077344
501,0.12998674
529,1619.4586035419193
2,1, 1,15, 0,18, 0.00,60.00,WinterDesignDay
7,-3.0
8,19.738766444520472
143,18.000471599960406
206,18.000471599960406
269,19.738766444520472
332,49.57
395,465.0610164710358
396,0.029496
399,344.6676125138399
400,0.0042018837890625
403,344.6676125138399
404,0.0042018837890625
407,465.0610164710358
408,0.029496
409,1617.2557452038177
423,46.593744217732116
424,674.5416341820685
499,1.970493742399194
500,1.970493742399194
501,0.12998674
529,1619.4572579697515
2,1, 1,15, 0,19, 0.00,60.00,WinterDesignDay
7,-3.0
8,19.738762572656448
143,18.00054005780488
206,18.00054005780488
269,19.738762572656448
332,49.57
395,465.06109399619595
396,0.029496
399,344.6655413947324
400,0.004201883789062501
403,344.6655413947324
404,0.004201883789062501
407,465.06109399619595
408,0.029496
409,1617.2518207916032
423,46.593751441542295
424,674.5399973479215
499,1.970493748728829
500,1.970493748728829
501,0.12998674
529,1619.4532707818566
2,1, 1,15, 0,20, 0.00,60.00,WinterDesignDay
7,-3.0
8,19.738760551514765
143,18.000721036859026
206,18.000721036859026
269,19.738760551514765
332,49.57
395,465.06105330380876
396,0.029496
399,344.66384456025656
400,0.0042018837890625
403,344.66384456025656
404,0.0042018837890625
407,465.06105330380876
408,0.029496
409,1617.2792151234635
423,46.59370101925063
424,674.5514232571725
499,1.9704937045478907
500,1.9704937045478907
501,0.12998674
529,1619.4497957281305
2,1, 1,15, 0,21, 0.00,60.00,WinterDesignDay
7,-3.0
8,19.73876460746904
143,18.000872419733124
206,18.000872419733124
269,19.73876460746904
332,49.57
395,465.06099907078124
396,0.029496
399,344.78275760429284
400,0.0042054843750000005
403,344.78275760429284
404,0.0042054843750000005
407,465.06099907078124
408,0.029496
409,1617.4569332510696
423,46.593373916288066
424,674.6255477588629
499,1.9704934179340716
500,1.9704934179340716
501,0.12998674
529,1619.687513350148
2,1, 1,15, 0,22, 0.00,60.00,WinterDesignDay
7,-3.0
8,19.738768704466608
143,18.00049409795378
206,18.00049409795378
269,19.738768704466608
332,49.57
395,465.0609598312568
396,0.029496
399,344.6677282009822
400,0.0042018837890625
403,344.6677282009822
404,0.0042018837890625
407,465.0609598312568
408,0.029496
409,1617.2561846974872
423,46.59374340892642
424,674.5418174906015
499,1.970493741690504
500,1.970493741690504
501,0.12998674
529,1619.457376064478
2,1, 1,15, 0,23, 0.00,60.00,WinterDesignDay
7,-3.0
8,19.738771398572194
143,18.000512955694376
206,18.000512955694376
269,19.738771398572194
332,49.57
395,465.0609624929787
396,0.029496
399,344.66711246405487
400,0.0042018837890625
403,344.66711246405487
404,0.0042018837890625
407,465.0609624929787
408,0.029496
409,1617.2546263840177
423,46.59374627671005
424,674.5411675332169
499,1.9704937442033086
500,1.9704937442033086
501,0.12998674
529,1619.4561499140675
2,1, 1,15, 0,24, 0.00,60.00,WinterDesignDay
7,-3.0
8,19.73877117706618
143,18.000568358513757
206,18.000568358513757
269,19.73877117706618
332,49.57
395,465.06097002039047
396,0.029496
399,344.66520651340534
400,0.004201883789062501
403,344.66520651340534
404,0.004201883789062501
407,465.06097002039047
408,0.029496
409,1617.250896585205
423,46.59375314237079
424,674.5396118704259
499,1.9704937502191266
500,1.9704937502191266
501,0.12998674
529,1619.452353067592
End of Data
 Number of Records Written=         504
