Program Version,EnergyPlus, Version 24.2.0-94a887817b, YMD=2025.06.26 13:07
1,5,Environment Title[],Latitude[deg],Longitude[deg],Time Zone[],Elevation[m]
2,8,Day of Simulation[],Month[],Day of Month[],DST Indicator[1=yes 0=no],Hour[],StartMinute[],EndMinute[],DayType
3,5,Cumulative Day of Simulation[],Month[],Day of Month[],DST Indicator[1=yes 0=no],DayType  ! When Daily Report Variables Requested
4,2,Cumulative Days of Simulation[],Month[]  ! When Monthly Report Variables Requested
5,1,Cumulative Days of Simulation[] ! When Run Period Report Variables Requested
6,1,Calendar Year of Simulation[] ! When Annual Report Variables Requested
7,1,Z1,Zone Air Temperature [C] !Hourly
142,1,Z2,Zone Air Temperature [C] !Hourly
205,1,Z3,Zone Air Temperature [C] !Hourly
268,1,Z4,Zone Air Temperature [C] !Hourly
393,1,Z1 RADIATOR,Baseboard Total Heating Rate [W] !Hourly
396,1,Z2 RADIATOR,Baseboard Total Heating Rate [W] !Hourly
399,1,Z3 RADIATOR,Baseboard Total Heating Rate [W] !Hourly
402,1,Z4 RADIATOR,Baseboard Total Heating Rate [W] !Hourly
403,1,HEAT PUMP,Heat Pump Load Side Heat Transfer Rate [W] !Hourly
417,1,HEAT PUMP,Heat Pump Electricity Rate [W] !Hourly
492,1,SUPPLY PUMP,Pump Electricity Rate [W] !Hourly
End of Data Dictionary
1,SUMMER DESIGN DAY IN SALFORD ENERGY HOUSE 1.0 (01-01:31-12) JUN HVAC Sizing Pass 1,  53.35,  -2.28,   0.00,  69.00
2,1, 6,15, 1, 1, 0.00,60.00,SummerDesignDay
7,21.403727754798687
142,21.403727747092386
205,21.40372775698163
268,21.40372774927533
393,0.0
396,0.0
399,0.0
402,0.0
403,0.0
417,0.0
492,0.0
2,1, 6,15, 1, 2, 0.00,60.00,SummerDesignDay
7,21.027361335657098
142,21.027361332066256
205,21.02736133667424
268,21.02736133308344
393,18.876315375953
396,18.876315377924705
399,18.876315375390973
402,18.876315377367334
403,97.58018597456947
417,27.880053135591275
492,1.4088899269208524
2,1, 6,15, 1, 3, 0.00,60.00,SummerDesignDay
7,21.000044272035954
142,21.00004427042969
205,21.00004427249094
268,21.000044270884686
393,45.72786405495323
396,45.727864057575204
399,45.72786405421006
402,45.72786405683205
403,177.6272114520067
417,50.75063184343047
492,2.8173592966635606
2,1, 6,15, 1, 4, 0.00,60.00,SummerDesignDay
7,21.00004727283771
142,21.000047272114067
205,21.000047273051063
268,21.0000472723274
393,51.987518433429294
396,51.98751843477626
399,51.98751843305074
402,51.98751843439309
403,192.6963641280614
417,55.05610403658898
492,2.8173228621314825
2,1, 6,15, 1, 5, 0.00,60.00,SummerDesignDay
7,21.000018144136984
142,21.00001817431172
205,21.000018162608153
268,21.00001819278286
393,55.91256654824534
396,55.91256652606645
399,55.91256653341452
402,55.91256651123564
403,210.61076626657675
417,60.17450464759335
492,2.81727954920035
2,1, 6,15, 1, 6, 0.00,60.00,SummerDesignDay
7,20.99994786954328
142,20.999948016798193
205,20.99994793502949
268,20.99994808228438
393,55.75009919134086
396,55.750099006657
399,55.75009910069079
402,55.750098916004646
403,219.81537647449375
417,62.80439327842679
492,2.8172572949452968
2,1, 6,15, 1, 7, 0.00,60.00,SummerDesignDay
7,21.000028079810726
142,21.000028376461703
205,21.000028158802834
268,21.00002845545376
393,48.682386528816586
396,48.6823861589403
399,48.682386413147356
402,48.68238604326645
403,208.37458540249287
417,59.53559582928368
492,2.8172849557641007
2,1, 6,15, 1, 8, 0.00,60.00,SummerDesignDay
7,21.00000808592689
142,21.000008486736725
205,21.000008124434423
268,21.000008525244198
393,30.161735155653087
396,30.161734822184993
399,30.16173510548237
402,30.16173477201197
403,129.22698827194804
417,36.92199664912801
492,2.116269915628266
2,1, 6,15, 1, 9, 0.00,60.00,SummerDesignDay
7,21.004120998852848
142,21.004121437554183
205,21.004120959718595
268,21.004121398419883
393,5.858578649673108
396,5.858578575663016
399,5.858578649087862
402,5.858578575075451
403,0.0
417,0.0
492,0.003571378254922628
2,1, 6,15, 1,10, 0.00,60.00,SummerDesignDay
7,21.163750599821046
142,21.163751014170785
205,21.16375045788462
268,21.163750872234342
393,0.0
396,0.0
399,0.0
402,0.0
403,0.0
417,0.0
492,0.0
2,1, 6,15, 1,11, 0.00,60.00,SummerDesignDay
7,21.546863642624988
142,21.546863967318856
205,21.546863408056
268,21.546863732749873
393,0.0
396,0.0
399,0.0
402,0.0
403,0.0
417,0.0
492,0.0
2,1, 6,15, 1,12, 0.00,60.00,SummerDesignDay
7,22.04336558939658
142,22.0433657844668
205,22.043365292353556
268,22.043365487423777
393,0.0
396,0.0
399,0.0
402,0.0
403,0.0
417,0.0
492,0.0
2,1, 6,15, 1,13, 0.00,60.00,SummerDesignDay
7,22.573255732069537
142,22.573255775693873
205,22.57325540663917
268,22.5732554502635
393,0.0
396,0.0
399,0.0
402,0.0
403,0.0
417,0.0
492,0.0
2,1, 6,15, 1,14, 0.00,60.00,SummerDesignDay
7,23.097622984338344
142,23.097622871441263
205,23.09762266680064
268,23.09762255390357
393,0.0
396,0.0
399,0.0
402,0.0
403,0.0
417,0.0
492,0.0
2,1, 6,15, 1,15, 0.00,60.00,SummerDesignDay
7,23.560767335366428
142,23.560767076403053
205,23.56076706048238
268,23.560766801518984
393,0.0
396,0.0
399,0.0
402,0.0
403,0.0
417,0.0
492,0.0
2,1, 6,15, 1,16, 0.00,60.00,SummerDesignDay
7,23.893548608972274
142,23.893548224227295
205,23.893548404696467
268,23.89354801995149
393,0.0
396,0.0
399,0.0
402,0.0
403,0.0
417,0.0
492,0.0
2,1, 6,15, 1,17, 0.00,60.00,SummerDesignDay
7,24.056210395576738
142,24.056209929071265
205,24.0562102853944
268,24.05620981888893
393,0.0
396,0.0
399,0.0
402,0.0
403,0.0
417,0.0
492,0.0
2,1, 6,15, 1,18, 0.00,60.00,SummerDesignDay
7,24.06140609102458
142,24.06140559691069
205,24.061406079544597
268,24.0614055854307
393,0.0
396,0.0
399,0.0
402,0.0
403,0.0
417,0.0
492,0.0
2,1, 6,15, 1,19, 0.00,60.00,SummerDesignDay
7,23.915503577752588
142,23.915503130051533
205,23.915503634860354
268,23.915503187159295
393,0.0
396,0.0
399,0.0
402,0.0
403,0.0
417,0.0
492,0.0
2,1, 6,15, 1,20, 0.00,60.00,SummerDesignDay
7,23.620193299189793
142,23.62019297320284
205,23.620193382617096
268,23.62019305663014
393,0.0
396,0.0
399,0.0
402,0.0
403,0.0
417,0.0
492,0.0
2,1, 6,15, 1,21, 0.00,60.00,SummerDesignDay
7,23.244046777996232
142,23.244046614366226
205,23.24404682463596
268,23.24404666100595
393,0.0
396,0.0
399,0.0
402,0.0
403,0.0
417,0.0
492,0.0
2,1, 6,15, 1,22, 0.00,60.00,SummerDesignDay
7,22.81675371210963
142,22.816753636118968
205,22.816753733642948
268,22.816753657652292
393,0.0
396,0.0
399,0.0
402,0.0
403,0.0
417,0.0
492,0.0
2,1, 6,15, 1,23, 0.00,60.00,SummerDesignDay
7,22.354624192532214
142,22.354624157123517
205,22.35462420256261
268,22.35462416715391
393,0.0
396,0.0
399,0.0
402,0.0
403,0.0
417,0.0
492,0.0
2,1, 6,15, 1,24, 0.00,60.00,SummerDesignDay
7,21.88149140607011
142,21.881491389558068
205,21.881491410747444
268,21.881491394235393
393,0.0
396,0.0
399,0.0
402,0.0
403,0.0
417,0.0
492,0.0
1,WINTER DESIGN DAY IN (MID) UK HVAC Sizing Pass 1,  53.35,  -2.28,   0.00,  69.00
2,1, 1,15, 0, 1, 0.00,60.00,WinterDesignDay
7,21.000302423540507
142,21.000302423540507
205,21.000302423540507
268,21.000302423540507
393,444.3131092653874
396,444.3131092653874
399,444.3131092653874
402,444.3131092653874
403,1769.380371643572
417,505.5372490410207
492,8.547008547008547
2,1, 1,15, 0, 2, 0.00,60.00,WinterDesignDay
7,21.000302423536205
142,21.000302423536205
205,21.000302423536205
268,21.000302423536205
393,444.3131092654446
396,444.3131092654446
399,444.3131092654446
402,444.3131092654446
403,1769.380371643801
417,505.53724904108606
492,8.547008547008547
2,1, 1,15, 0, 3, 0.00,60.00,WinterDesignDay
7,21.00030242353242
142,21.00030242353242
205,21.00030242353242
268,21.00030242353242
393,444.31310926549816
396,444.31310926549816
399,444.31310926549816
402,444.31310926549816
403,1769.380371644024
417,505.53724904114966
492,8.547008547008547
2,1, 1,15, 0, 4, 0.00,60.00,WinterDesignDay
7,21.000302423529092
142,21.000302423529092
205,21.000302423529092
268,21.000302423529092
393,444.3131092655412
396,444.3131092655412
399,444.3131092655412
402,444.3131092655412
403,1769.3803716442053
417,505.53724904120145
492,8.547008547008547
2,1, 1,15, 0, 5, 0.00,60.00,WinterDesignDay
7,21.000302423526133
142,21.000302423526133
205,21.000302423526133
268,21.000302423526133
393,444.3131092655776
396,444.3131092655776
399,444.3131092655776
402,444.3131092655776
403,1769.3803716443476
417,505.53724904124215
492,8.547008547008547
2,1, 1,15, 0, 6, 0.00,60.00,WinterDesignDay
7,21.00030242352355
142,21.00030242352355
205,21.00030242352355
268,21.00030242352355
393,444.3131092656155
396,444.3131092656155
399,444.3131092656155
402,444.3131092656155
403,1769.3803716445054
417,505.5372490412873
492,8.547008547008547
2,1, 1,15, 0, 7, 0.00,60.00,WinterDesignDay
7,21.00030242352128
142,21.00030242352128
205,21.00030242352128
268,21.00030242352128
393,444.31310926564674
396,444.31310926564674
399,444.31310926564674
402,444.31310926564674
403,1769.380371644639
417,505.5372490413254
492,8.547008547008547
2,1, 1,15, 0, 8, 0.00,60.00,WinterDesignDay
7,21.000302423519276
142,21.000302423519276
205,21.000302423519276
268,21.000302423519276
393,444.3131092656735
396,444.3131092656735
399,444.3131092656735
402,444.3131092656735
403,1769.38037164474
417,505.5372490413543
492,8.547008547008547
2,1, 1,15, 0, 9, 0.00,60.00,WinterDesignDay
7,21.000302423517518
142,21.000302423517518
205,21.000302423517518
268,21.000302423517518
393,444.3131092656972
396,444.3131092656972
399,444.3131092656972
402,444.3131092656972
403,1769.380371644835
417,505.5372490413815
492,8.547008547008547
2,1, 1,15, 0,10, 0.00,60.00,WinterDesignDay
7,21.00030242351598
142,21.00030242351598
205,21.00030242351598
268,21.00030242351598
393,444.31310926572104
396,444.31310926572104
399,444.31310926572104
402,444.31310926572104
403,1769.3803716449363
417,505.5372490414103
492,8.547008547008547
2,1, 1,15, 0,11, 0.00,60.00,WinterDesignDay
7,21.000302423514622
142,21.000302423514622
205,21.000302423514622
268,21.000302423514622
393,444.3131092657366
396,444.3131092657366
399,444.3131092657366
402,444.3131092657366
403,1769.3803716450075
417,505.5372490414307
492,8.547008547008547
2,1, 1,15, 0,12, 0.00,60.00,WinterDesignDay
7,21.000302423513403
142,21.000302423513403
205,21.000302423513403
268,21.000302423513403
393,444.31310926575225
396,444.31310926575225
399,444.31310926575225
402,444.31310926575225
403,1769.3803716450639
417,505.53724904144684
492,8.547008547008547
2,1, 1,15, 0,13, 0.00,60.00,WinterDesignDay
7,21.000302423512355
142,21.000302423512355
205,21.000302423512355
268,21.000302423512355
393,444.3131092657678
396,444.3131092657678
399,444.3131092657678
402,444.3131092657678
403,1769.3803716451293
417,505.53724904146554
492,8.547008547008547
2,1, 1,15, 0,14, 0.00,60.00,WinterDesignDay
7,21.000302423511418
142,21.000302423511418
205,21.000302423511418
268,21.000302423511418
393,444.31310926577896
396,444.31310926577896
399,444.31310926577896
402,444.31310926577896
403,1769.3803716451769
417,505.5372490414791
492,8.547008547008547
2,1, 1,15, 0,15, 0.00,60.00,WinterDesignDay
7,21.000302423510593
142,21.000302423510593
205,21.000302423510593
268,21.000302423510593
393,444.31310926579005
396,444.31310926579005
399,444.31310926579005
402,444.31310926579005
403,1769.3803716452303
417,505.53724904149436
492,8.547008547008547
2,1, 1,15, 0,16, 0.00,60.00,WinterDesignDay
7,21.00030242350988
142,21.00030242350988
205,21.00030242350988
268,21.00030242350988
393,444.31310926580124
396,444.31310926580124
399,444.31310926580124
402,444.31310926580124
403,1769.3803716452599
417,505.5372490415029
492,8.547008547008547
2,1, 1,15, 0,17, 0.00,60.00,WinterDesignDay
7,21.00030242350925
142,21.00030242350925
205,21.00030242350925
268,21.00030242350925
393,444.3131092658109
396,444.3131092658109
399,444.3131092658109
402,444.3131092658109
403,1769.3803716453046
417,505.53724904151557
492,8.547008547008547
2,1, 1,15, 0,18, 0.00,60.00,WinterDesignDay
7,21.000302423508693
142,21.000302423508693
205,21.000302423508693
268,21.000302423508693
393,444.31310926581756
396,444.31310926581756
399,444.31310926581756
402,444.31310926581756
403,1769.3803716453344
417,505.5372490415241
492,8.547008547008547
2,1, 1,15, 0,19, 0.00,60.00,WinterDesignDay
7,21.00030242350819
142,21.00030242350819
205,21.00030242350819
268,21.00030242350819
393,444.31310926582205
396,444.31310926582205
399,444.31310926582205
402,444.31310926582205
403,1769.3803716453522
417,505.5372490415292
492,8.547008547008547
2,1, 1,15, 0,20, 0.00,60.00,WinterDesignDay
7,21.00030242350777
142,21.00030242350777
205,21.00030242350777
268,21.00030242350777
393,444.313109265831
396,444.313109265831
399,444.313109265831
402,444.313109265831
403,1769.3803716453906
417,505.5372490415402
492,8.547008547008547
2,1, 1,15, 0,21, 0.00,60.00,WinterDesignDay
7,21.000302423507385
142,21.000302423507385
205,21.000302423507385
268,21.000302423507385
393,444.31310926583546
396,444.31310926583546
399,444.31310926583546
402,444.31310926583546
403,1769.3803716454083
417,505.5372490415453
492,8.547008547008547
2,1, 1,15, 0,22, 0.00,60.00,WinterDesignDay
7,21.000302423507062
142,21.000302423507062
205,21.000302423507062
268,21.000302423507062
393,444.3131092658399
396,444.3131092658399
399,444.3131092658399
402,444.3131092658399
403,1769.3803716454233
417,505.5372490415495
492,8.547008547008547
2,1, 1,15, 0,23, 0.00,60.00,WinterDesignDay
7,21.00030242350675
142,21.00030242350675
205,21.00030242350675
268,21.00030242350675
393,444.3131092658421
396,444.3131092658421
399,444.3131092658421
402,444.3131092658421
403,1769.3803716454295
417,505.5372490415512
492,8.547008547008547
2,1, 1,15, 0,24, 0.00,60.00,WinterDesignDay
7,21.00030242350651
142,21.00030242350651
205,21.00030242350651
268,21.00030242350651
393,444.3131092658488
396,444.3131092658488
399,444.3131092658488
402,444.3131092658488
403,1769.3803716454681
417,505.53724904156235
492,8.547008547008547
1,SUMMER DESIGN DAY IN SALFORD ENERGY HOUSE 1.0 (01-01:31-12) JUN,  53.35,  -2.28,   0.00,  69.00
2,1, 6,15, 1, 1, 0.00,60.00,SummerDesignDay
7,21.403727754798687
142,21.403727747092386
205,21.40372775698163
268,21.40372774927533
393,0.0
396,0.0
399,0.0
402,0.0
403,0.0
417,0.0
492,0.0
2,1, 6,15, 1, 2, 0.00,60.00,SummerDesignDay
7,21.027361335657098
142,21.027361332066256
205,21.02736133667424
268,21.02736133308344
393,18.876315375953
396,18.876315377924705
399,18.876315375390973
402,18.876315377367334
403,97.58018597456947
417,27.880053135591275
492,1.4088899269208524
2,1, 6,15, 1, 3, 0.00,60.00,SummerDesignDay
7,21.000044272035954
142,21.00004427042969
205,21.00004427249094
268,21.000044270884686
393,45.72786405495323
396,45.727864057575204
399,45.72786405421006
402,45.72786405683205
403,177.6272114520067
417,50.75063184343047
492,2.8173592966635606
2,1, 6,15, 1, 4, 0.00,60.00,SummerDesignDay
7,21.00004727283771
142,21.000047272114067
205,21.000047273051063
268,21.0000472723274
393,51.987518433429294
396,51.98751843477626
399,51.98751843305074
402,51.98751843439309
403,192.6963641280614
417,55.05610403658898
492,2.8173228621314825
2,1, 6,15, 1, 5, 0.00,60.00,SummerDesignDay
7,21.000018144136984
142,21.00001817431172
205,21.000018162608153
268,21.00001819278286
393,55.91256654824534
396,55.91256652606645
399,55.91256653341452
402,55.91256651123564
403,210.61076626657675
417,60.17450464759335
492,2.81727954920035
2,1, 6,15, 1, 6, 0.00,60.00,SummerDesignDay
7,20.99994786954328
142,20.999948016798193
205,20.99994793502949
268,20.99994808228438
393,55.75009919134086
396,55.750099006657
399,55.75009910069079
402,55.750098916004646
403,219.81537647449375
417,62.80439327842679
492,2.8172572949452968
2,1, 6,15, 1, 7, 0.00,60.00,SummerDesignDay
7,21.000028079810726
142,21.000028376461703
205,21.000028158802834
268,21.00002845545376
393,48.682386528816586
396,48.6823861589403
399,48.682386413147356
402,48.68238604326645
403,208.37458540249287
417,59.53559582928368
492,2.8172849557641007
2,1, 6,15, 1, 8, 0.00,60.00,SummerDesignDay
7,21.00000808592689
142,21.000008486736725
205,21.000008124434423
268,21.000008525244198
393,30.161735155653087
396,30.161734822184993
399,30.16173510548237
402,30.16173477201197
403,129.22698827194804
417,36.92199664912801
492,2.116269915628266
2,1, 6,15, 1, 9, 0.00,60.00,SummerDesignDay
7,21.004120998852848
142,21.004121437554183
205,21.004120959718595
268,21.004121398419883
393,5.858578649673108
396,5.858578575663016
399,5.858578649087862
402,5.858578575075451
403,0.0
417,0.0
492,0.003571378254922628
2,1, 6,15, 1,10, 0.00,60.00,SummerDesignDay
7,21.163750599821046
142,21.163751014170785
205,21.16375045788462
268,21.163750872234342
393,0.0
396,0.0
399,0.0
402,0.0
403,0.0
417,0.0
492,0.0
2,1, 6,15, 1,11, 0.00,60.00,SummerDesignDay
7,21.546863642624988
142,21.546863967318856
205,21.546863408056
268,21.546863732749873
393,0.0
396,0.0
399,0.0
402,0.0
403,0.0
417,0.0
492,0.0
2,1, 6,15, 1,12, 0.00,60.00,SummerDesignDay
7,22.04336558939658
142,22.0433657844668
205,22.043365292353556
268,22.043365487423777
393,0.0
396,0.0
399,0.0
402,0.0
403,0.0
417,0.0
492,0.0
2,1, 6,15, 1,13, 0.00,60.00,SummerDesignDay
7,22.573255732069537
142,22.573255775693873
205,22.57325540663917
268,22.5732554502635
393,0.0
396,0.0
399,0.0
402,0.0
403,0.0
417,0.0
492,0.0
2,1, 6,15, 1,14, 0.00,60.00,SummerDesignDay
7,23.097622984338344
142,23.097622871441263
205,23.09762266680064
268,23.09762255390357
393,0.0
396,0.0
399,0.0
402,0.0
403,0.0
417,0.0
492,0.0
2,1, 6,15, 1,15, 0.00,60.00,SummerDesignDay
7,23.560767335366428
142,23.560767076403053
205,23.56076706048238
268,23.560766801518984
393,0.0
396,0.0
399,0.0
402,0.0
403,0.0
417,0.0
492,0.0
2,1, 6,15, 1,16, 0.00,60.00,SummerDesignDay
7,23.893548608972274
142,23.893548224227295
205,23.893548404696467
268,23.89354801995149
393,0.0
396,0.0
399,0.0
402,0.0
403,0.0
417,0.0
492,0.0
2,1, 6,15, 1,17, 0.00,60.00,SummerDesignDay
7,24.056210395576738
142,24.056209929071265
205,24.0562102853944
268,24.05620981888893
393,0.0
396,0.0
399,0.0
402,0.0
403,0.0
417,0.0
492,0.0
2,1, 6,15, 1,18, 0.00,60.00,SummerDesignDay
7,24.06140609102458
142,24.06140559691069
205,24.061406079544597
268,24.0614055854307
393,0.0
396,0.0
399,0.0
402,0.0
403,0.0
417,0.0
492,0.0
2,1, 6,15, 1,19, 0.00,60.00,SummerDesignDay
7,23.915503577752588
142,23.915503130051533
205,23.915503634860354
268,23.915503187159295
393,0.0
396,0.0
399,0.0
402,0.0
403,0.0
417,0.0
492,0.0
2,1, 6,15, 1,20, 0.00,60.00,SummerDesignDay
7,23.620193299189793
142,23.62019297320284
205,23.620193382617096
268,23.62019305663014
393,0.0
396,0.0
399,0.0
402,0.0
403,0.0
417,0.0
492,0.0
2,1, 6,15, 1,21, 0.00,60.00,SummerDesignDay
7,23.244046777996232
142,23.244046614366226
205,23.24404682463596
268,23.24404666100595
393,0.0
396,0.0
399,0.0
402,0.0
403,0.0
417,0.0
492,0.0
2,1, 6,15, 1,22, 0.00,60.00,SummerDesignDay
7,22.81675371210963
142,22.816753636118968
205,22.816753733642948
268,22.816753657652292
393,0.0
396,0.0
399,0.0
402,0.0
403,0.0
417,0.0
492,0.0
2,1, 6,15, 1,23, 0.00,60.00,SummerDesignDay
7,22.354624192532214
142,22.354624157123517
205,22.35462420256261
268,22.35462416715391
393,0.0
396,0.0
399,0.0
402,0.0
403,0.0
417,0.0
492,0.0
2,1, 6,15, 1,24, 0.00,60.00,SummerDesignDay
7,21.88149140607011
142,21.881491389558068
205,21.881491410747444
268,21.881491394235393
393,0.0
396,0.0
399,0.0
402,0.0
403,0.0
417,0.0
492,0.0
1,WINTER DESIGN DAY IN (MID) UK,  53.35,  -2.28,   0.00,  69.00
2,1, 1,15, 0, 1, 0.00,60.00,WinterDesignDay
7,21.000302423540507
142,21.000302423540507
205,21.000302423540507
268,21.000302423540507
393,444.3131092653874
396,444.3131092653874
399,444.3131092653874
402,444.3131092653874
403,1769.380371643572
417,505.5372490410207
492,8.547008547008547
2,1, 1,15, 0, 2, 0.00,60.00,WinterDesignDay
7,21.000302423536205
142,21.000302423536205
205,21.000302423536205
268,21.000302423536205
393,444.3131092654446
396,444.3131092654446
399,444.3131092654446
402,444.3131092654446
403,1769.380371643801
417,505.53724904108606
492,8.547008547008547
2,1, 1,15, 0, 3, 0.00,60.00,WinterDesignDay
7,21.00030242353242
142,21.00030242353242
205,21.00030242353242
268,21.00030242353242
393,444.31310926549816
396,444.31310926549816
399,444.31310926549816
402,444.31310926549816
403,1769.380371644024
417,505.53724904114966
492,8.547008547008547
2,1, 1,15, 0, 4, 0.00,60.00,WinterDesignDay
7,21.000302423529092
142,21.000302423529092
205,21.000302423529092
268,21.000302423529092
393,444.3131092655412
396,444.3131092655412
399,444.3131092655412
402,444.3131092655412
403,1769.3803716442053
417,505.53724904120145
492,8.547008547008547
2,1, 1,15, 0, 5, 0.00,60.00,WinterDesignDay
7,21.000302423526133
142,21.000302423526133
205,21.000302423526133
268,21.000302423526133
393,444.3131092655776
396,444.3131092655776
399,444.3131092655776
402,444.3131092655776
403,1769.3803716443476
417,505.53724904124215
492,8.547008547008547
2,1, 1,15, 0, 6, 0.00,60.00,WinterDesignDay
7,21.00030242352355
142,21.00030242352355
205,21.00030242352355
268,21.00030242352355
393,444.3131092656155
396,444.3131092656155
399,444.3131092656155
402,444.3131092656155
403,1769.3803716445054
417,505.5372490412873
492,8.547008547008547
2,1, 1,15, 0, 7, 0.00,60.00,WinterDesignDay
7,21.00030242352128
142,21.00030242352128
205,21.00030242352128
268,21.00030242352128
393,444.31310926564674
396,444.31310926564674
399,444.31310926564674
402,444.31310926564674
403,1769.380371644639
417,505.5372490413254
492,8.547008547008547
2,1, 1,15, 0, 8, 0.00,60.00,WinterDesignDay
7,21.000302423519276
142,21.000302423519276
205,21.000302423519276
268,21.000302423519276
393,444.3131092656735
396,444.3131092656735
399,444.3131092656735
402,444.3131092656735
403,1769.38037164474
417,505.5372490413543
492,8.547008547008547
2,1, 1,15, 0, 9, 0.00,60.00,WinterDesignDay
7,21.000302423517518
142,21.000302423517518
205,21.000302423517518
268,21.000302423517518
393,444.3131092656972
396,444.3131092656972
399,444.3131092656972
402,444.3131092656972
403,1769.380371644835
417,505.5372490413815
492,8.547008547008547
2,1, 1,15, 0,10, 0.00,60.00,WinterDesignDay
7,21.00030242351598
142,21.00030242351598
205,21.00030242351598
268,21.00030242351598
393,444.31310926572104
396,444.31310926572104
399,444.31310926572104
402,444.31310926572104
403,1769.3803716449363
417,505.5372490414103
492,8.547008547008547
2,1, 1,15, 0,11, 0.00,60.00,WinterDesignDay
7,21.000302423514622
142,21.000302423514622
205,21.000302423514622
268,21.000302423514622
393,444.3131092657366
396,444.3131092657366
399,444.3131092657366
402,444.3131092657366
403,1769.3803716450075
417,505.5372490414307
492,8.547008547008547
2,1, 1,15, 0,12, 0.00,60.00,WinterDesignDay
7,21.000302423513403
142,21.000302423513403
205,21.000302423513403
268,21.000302423513403
393,444.31310926575225
396,444.31310926575225
399,444.31310926575225
402,444.31310926575225
403,1769.3803716450639
417,505.53724904144684
492,8.547008547008547
2,1, 1,15, 0,13, 0.00,60.00,WinterDesignDay
7,21.000302423512355
142,21.000302423512355
205,21.000302423512355
268,21.000302423512355
393,444.3131092657678
396,444.3131092657678
399,444.3131092657678
402,444.3131092657678
403,1769.3803716451293
417,505.53724904146554
492,8.547008547008547
2,1, 1,15, 0,14, 0.00,60.00,WinterDesignDay
7,21.000302423511418
142,21.000302423511418
205,21.000302423511418
268,21.000302423511418
393,444.31310926577896
396,444.31310926577896
399,444.31310926577896
402,444.31310926577896
403,1769.3803716451769
417,505.5372490414791
492,8.547008547008547
2,1, 1,15, 0,15, 0.00,60.00,WinterDesignDay
7,21.000302423510593
142,21.000302423510593
205,21.000302423510593
268,21.000302423510593
393,444.31310926579005
396,444.31310926579005
399,444.31310926579005
402,444.31310926579005
403,1769.3803716452303
417,505.53724904149436
492,8.547008547008547
2,1, 1,15, 0,16, 0.00,60.00,WinterDesignDay
7,21.00030242350988
142,21.00030242350988
205,21.00030242350988
268,21.00030242350988
393,444.31310926580124
396,444.31310926580124
399,444.31310926580124
402,444.31310926580124
403,1769.3803716452599
417,505.5372490415029
492,8.547008547008547
2,1, 1,15, 0,17, 0.00,60.00,WinterDesignDay
7,21.00030242350925
142,21.00030242350925
205,21.00030242350925
268,21.00030242350925
393,444.3131092658109
396,444.3131092658109
399,444.3131092658109
402,444.3131092658109
403,1769.3803716453046
417,505.53724904151557
492,8.547008547008547
2,1, 1,15, 0,18, 0.00,60.00,WinterDesignDay
7,21.000302423508693
142,21.000302423508693
205,21.000302423508693
268,21.000302423508693
393,444.31310926581756
396,444.31310926581756
399,444.31310926581756
402,444.31310926581756
403,1769.3803716453344
417,505.5372490415241
492,8.547008547008547
2,1, 1,15, 0,19, 0.00,60.00,WinterDesignDay
7,21.00030242350819
142,21.00030242350819
205,21.00030242350819
268,21.00030242350819
393,444.31310926582205
396,444.31310926582205
399,444.31310926582205
402,444.31310926582205
403,1769.3803716453522
417,505.5372490415292
492,8.547008547008547
2,1, 1,15, 0,20, 0.00,60.00,WinterDesignDay
7,21.00030242350777
142,21.00030242350777
205,21.00030242350777
268,21.00030242350777
393,444.313109265831
396,444.313109265831
399,444.313109265831
402,444.313109265831
403,1769.3803716453906
417,505.5372490415402
492,8.547008547008547
2,1, 1,15, 0,21, 0.00,60.00,WinterDesignDay
7,21.000302423507385
142,21.000302423507385
205,21.000302423507385
268,21.000302423507385
393,444.31310926583546
396,444.31310926583546
399,444.31310926583546
402,444.31310926583546
403,1769.3803716454083
417,505.5372490415453
492,8.547008547008547
2,1, 1,15, 0,22, 0.00,60.00,WinterDesignDay
7,21.000302423507062
142,21.000302423507062
205,21.000302423507062
268,21.000302423507062
393,444.3131092658399
396,444.3131092658399
399,444.3131092658399
402,444.3131092658399
403,1769.3803716454233
417,505.5372490415495
492,8.547008547008547
2,1, 1,15, 0,23, 0.00,60.00,WinterDesignDay
7,21.00030242350675
142,21.00030242350675
205,21.00030242350675
268,21.00030242350675
393,444.3131092658421
396,444.3131092658421
399,444.3131092658421
402,444.3131092658421
403,1769.3803716454295
417,505.5372490415512
492,8.547008547008547
2,1, 1,15, 0,24, 0.00,60.00,WinterDesignDay
7,21.00030242350651
142,21.00030242350651
205,21.00030242350651
268,21.00030242350651
393,444.3131092658488
396,444.3131092658488
399,444.3131092658488
402,444.3131092658488
403,1769.3803716454681
417,505.53724904156235
492,8.547008547008547
End of Data
 Number of Records Written=        1056
