Program Version,EnergyPlus, Version 24.2.0-94a887817b, YMD=2025.06.30 12:52
1,5,Environment Title[],Latitude[deg],Longitude[deg],Time Zone[],Elevation[m]
2,8,Day of Simulation[],Month[],Day of Month[],DST Indicator[1=yes 0=no],Hour[],StartMinute[],EndMinute[],DayType
3,5,Cumulative Day of Simulation[],Month[],Day of Month[],DST Indicator[1=yes 0=no],DayType  ! When Daily Report Variables Requested
4,2,Cumulative Days of Simulation[],Month[]  ! When Monthly Report Variables Requested
5,1,Cumulative Days of Simulation[] ! When Run Period Report Variables Requested
6,1,Calendar Year of Simulation[] ! When Annual Report Variables Requested
7,1,Z1,Zone Air Temperature [C] !Hourly
142,1,Z2,Zone Air Temperature [C] !Hourly
205,1,Z3,Zone Air Temperature [C] !Hourly
268,1,Z4,Zone Air Temperature [C] !Hourly
393,1,Z1 RADIATOR,Baseboard Total Heating Rate [W] !Hourly
396,1,Z2 RADIATOR,Baseboard Total Heating Rate [W] !Hourly
399,1,Z3 RADIATOR,Baseboard Total Heating Rate [W] !Hourly
402,1,Z4 RADIATOR,Baseboard Total Heating Rate [W] !Hourly
403,1,HEAT PUMP,Heat Pump Load Side Heat Transfer Rate [W] !Hourly
417,1,HEAT PUMP,Heat Pump Electricity Rate [W] !Hourly
492,1,SUPPLY PUMP,Pump Electricity Rate [W] !Hourly
493,1,SUPPLY PUMP,Pump Fluid Heat Gain Rate [W] !Hourly
End of Data Dictionary
1,WINTER DESIGN DAY IN (MID) UK,  53.35,  -2.28,   0.00,  69.00
2,1, 1,15, 0, 1, 0.00,60.00,WinterDesignDay
7,19.7527645623598
142,18.000131084304545
205,18.000131084304545
268,19.7527645623598
393,465.68741295844677
396,344.30536570066323
399,344.30536570066323
402,465.68741295844677
403,1615.748261231425
417,461.64236035183575
492,4.0103574110004025
493,4.0103574110004025
2,1, 1,15, 0, 2, 0.00,60.00,WinterDesignDay
7,19.752764562376882
142,18.00013108432297
205,18.00013108432297
268,19.752764562376882
393,465.687412958215
396,344.30536570048685
399,344.30536570048685
402,465.687412958215
403,1615.7482612306078
417,461.64236035160224
492,4.010357411000404
493,4.010357411000404
2,1, 1,15, 0, 3, 0.00,60.00,WinterDesignDay
7,19.75276456239205
142,18.000131084339326
205,18.000131084339326
268,19.75276456239205
393,465.68741295800805
396,344.3053657003302
399,344.3053657003302
402,465.68741295800805
403,1615.748261229879
417,461.642360351394
492,4.010357411000405
493,4.010357411000405
2,1, 1,15, 0, 4, 0.00,60.00,WinterDesignDay
7,19.752764562405513
142,18.000131084353846
205,18.000131084353846
268,19.752764562405513
393,465.68741295782564
396,344.3053657001909
399,344.3053657001909
402,465.68741295782564
403,1615.7482612292345
417,461.64236035120985
492,4.010357411000406
493,4.010357411000406
2,1, 1,15, 0, 5, 0.00,60.00,WinterDesignDay
7,19.752764562417468
142,18.000131084366735
205,18.000131084366735
268,19.752764562417468
393,465.68741295766324
396,344.3053657000672
399,344.3053657000672
402,465.68741295766324
403,1615.7482612286603
417,461.64236035104585
492,4.010357411000407
493,4.010357411000407
2,1, 1,15, 0, 6, 0.00,60.00,WinterDesignDay
7,19.752764562428073
142,18.000131084378182
205,18.000131084378182
268,19.752764562428073
393,465.687412957517
396,344.30536569995763
399,344.30536569995763
402,465.687412957517
403,1615.748261228151
417,461.64236035090033
492,4.010357411000408
493,4.010357411000408
2,1, 1,15, 0, 7, 0.00,60.00,WinterDesignDay
7,19.752764562437488
142,18.000131084388336
205,18.000131084388336
268,19.752764562437488
393,465.6874129573897
396,344.30536569985986
399,344.30536569985986
402,465.6874129573897
403,1615.7482612276967
417,461.6423603507704
492,4.010357411000408
493,4.010357411000408
2,1, 1,15, 0, 8, 0.00,60.00,WinterDesignDay
7,19.752764562445858
142,18.000131084397353
205,18.000131084397353
268,19.752764562445858
393,465.6874129572776
396,344.30536569977386
399,344.30536569977386
402,465.6874129572776
403,1615.7482612273006
417,461.6423603506573
492,4.010357411000409
493,4.010357411000409
2,1, 1,15, 0, 9, 0.00,60.00,WinterDesignDay
7,19.752764562453272
142,18.00013108440536
205,18.00013108440536
268,19.752764562453272
393,465.68741295717507
396,344.30536569969684
399,344.30536569969684
402,465.68741295717507
403,1615.748261226946
417,461.6423603505561
492,4.01035741100041
493,4.01035741100041
2,1, 1,15, 0,10, 0.00,60.00,WinterDesignDay
7,19.752764562459856
142,18.000131084412466
205,18.000131084412466
268,19.752764562459856
393,465.68741295708577
396,344.3053656996289
399,344.3053656996289
402,465.68741295708577
403,1615.7482612266288
417,461.64236035046537
492,4.010357411000411
493,4.010357411000411
2,1, 1,15, 0,11, 0.00,60.00,WinterDesignDay
7,19.752764562465707
142,18.000131084418772
205,18.000131084418772
268,19.752764562465707
393,465.687412957006
396,344.30536569956837
399,344.30536569956837
402,465.687412957006
403,1615.7482612263484
417,461.64236035038533
492,4.010357411000411
493,4.010357411000411
2,1, 1,15, 0,12, 0.00,60.00,WinterDesignDay
7,19.752764562470915
142,18.000131084424375
205,18.000131084424375
268,19.752764562470915
393,465.6874129569357
396,344.3053656995146
399,344.3053656995146
402,465.6874129569357
403,1615.7482612260958
417,461.64236035031314
492,4.010357411000411
493,4.010357411000411
2,1, 1,15, 0,13, 0.00,60.00,WinterDesignDay
7,19.75276456247552
142,18.00013108442935
205,18.00013108442935
268,19.75276456247552
393,465.68741295687306
396,344.3053656994672
399,344.3053656994672
402,465.68741295687306
403,1615.7482612258764
417,461.6423603502504
492,4.010357411000411
493,4.010357411000411
2,1, 1,15, 0,14, 0.00,60.00,WinterDesignDay
7,19.752764562479612
142,18.00013108443376
205,18.00013108443376
268,19.752764562479612
393,465.687412956817
396,344.30536569942467
399,344.30536569942467
402,465.687412956817
403,1615.7482612256765
417,461.64236035019326
492,4.010357411000411
493,4.010357411000411
2,1, 1,15, 0,15, 0.00,60.00,WinterDesignDay
7,19.752764562483243
142,18.000131084437673
205,18.000131084437673
268,19.752764562483243
393,465.68741295676864
396,344.30536569938715
399,344.30536569938715
402,465.68741295676864
403,1615.7482612255078
417,461.64236035014517
492,4.010357411000412
493,4.010357411000412
2,1, 1,15, 0,16, 0.00,60.00,WinterDesignDay
7,19.752764562486465
142,18.00013108444115
205,18.00013108444115
268,19.752764562486465
393,465.68741295672396
396,344.30536569935384
399,344.30536569935384
402,465.68741295672396
403,1615.7482612253493
417,461.6423603500998
492,4.010357411000412
493,4.010357411000412
2,1, 1,15, 0,17, 0.00,60.00,WinterDesignDay
7,19.752764562489325
142,18.000131084444238
205,18.000131084444238
268,19.752764562489325
393,465.687412956685
396,344.3053656993243
399,344.3053656993243
402,465.687412956685
403,1615.7482612252124
417,461.64236035006064
492,4.010357411000412
493,4.010357411000412
2,1, 1,15, 0,18, 0.00,60.00,WinterDesignDay
7,19.752764562491862
142,18.00013108444698
205,18.00013108444698
268,19.752764562491862
393,465.68741295664984
396,344.30536569929814
399,344.30536569929814
402,465.68741295664984
403,1615.7482612250928
417,461.6423603500265
492,4.010357411000412
493,4.010357411000412
2,1, 1,15, 0,19, 0.00,60.00,WinterDesignDay
7,19.752764562494118
142,18.00013108444941
205,18.00013108444941
268,19.752764562494118
393,465.6874129566186
396,344.3053656992745
399,344.3053656992745
402,465.6874129566186
403,1615.748261224981
417,461.64236034999453
492,4.010357411000413
493,4.010357411000413
2,1, 1,15, 0,20, 0.00,60.00,WinterDesignDay
7,19.75276456249612
142,18.000131084451564
205,18.000131084451564
268,19.75276456249612
393,465.6874129565929
396,344.305365699254
399,344.305365699254
402,465.6874129565929
403,1615.7482612248868
417,461.6423603499677
492,4.010357411000413
493,4.010357411000413
2,1, 1,15, 0,21, 0.00,60.00,WinterDesignDay
7,19.752764562497898
142,18.000131084453486
205,18.000131084453486
268,19.752764562497898
393,465.68741295656815
396,344.3053656992358
399,344.3053656992358
402,465.68741295656815
403,1615.7482612247968
417,461.64236034994195
492,4.010357411000413
493,4.010357411000413
2,1, 1,15, 0,22, 0.00,60.00,WinterDesignDay
7,19.752764562499475
142,18.00013108445519
205,18.00013108445519
268,19.752764562499475
393,465.6874129565464
396,344.30536569921946
399,344.30536569921946
402,465.6874129565464
403,1615.7482612247263
417,461.64236034992183
492,4.010357411000413
493,4.010357411000413
2,1, 1,15, 0,23, 0.00,60.00,WinterDesignDay
7,19.75276456250088
142,18.000131084456704
205,18.000131084456704
268,19.75276456250088
393,465.6874129565274
396,344.305365699205
399,344.305365699205
402,465.6874129565274
403,1615.7482612246597
417,461.6423603499028
492,4.010357411000413
493,4.010357411000413
2,1, 1,15, 0,24, 0.00,60.00,WinterDesignDay
7,19.752764562502115
142,18.000131084458037
205,18.000131084458037
268,19.752764562502115
393,465.68741295651023
396,344.30536569919184
399,344.30536569919184
402,465.68741295651023
403,1615.748261224599
417,461.6423603498854
492,4.010357411000413
493,4.010357411000413
End of Data
 Number of Records Written=         288
