Program Version,EnergyPlus, Version 24.2.0-94a887817b, YMD=2026.03.31 11:03
1,5,Environment Title[],Latitude[deg],Longitude[deg],Time Zone[],Elevation[m]
2,8,Day of Simulation[],Month[],Day of Month[],DST Indicator[1=yes 0=no],Hour[],StartMinute[],EndMinute[],DayType
3,5,Cumulative Day of Simulation[],Month[],Day of Month[],DST Indicator[1=yes 0=no],DayType  ! When Daily Report Variables Requested
4,2,Cumulative Days of Simulation[],Month[]  ! When Monthly Report Variables Requested
5,1,Cumulative Days of Simulation[] ! When Run Period Report Variables Requested
6,1,Calendar Year of Simulation[] ! When Annual Report Variables Requested
7,1,Environment,Site Outdoor Air Drybulb Temperature [C] !Hourly
8,1,Z1,Zone Air Temperature [C] !Hourly
143,1,Z2,Zone Air Temperature [C] !Hourly
206,1,Z3,Zone Air Temperature [C] !Hourly
269,1,Z4,Zone Air Temperature [C] !Hourly
332,1,HOT WATER LOOP,Plant Supply Side Outlet Temperature [C] !Hourly
395,1,Z1 RADIATOR,Baseboard Total Heating Rate [W] !Hourly
396,1,Z1 RADIATOR,Baseboard Hot Water Mass Flow Rate [kg/s] !Hourly
399,1,Z2 RADIATOR,Baseboard Total Heating Rate [W] !Hourly
400,1,Z2 RADIATOR,Baseboard Hot Water Mass Flow Rate [kg/s] !Hourly
403,1,Z3 RADIATOR,Baseboard Total Heating Rate [W] !Hourly
404,1,Z3 RADIATOR,Baseboard Hot Water Mass Flow Rate [kg/s] !Hourly
407,1,Z4 RADIATOR,Baseboard Total Heating Rate [W] !Hourly
408,1,Z4 RADIATOR,Baseboard Hot Water Mass Flow Rate [kg/s] !Hourly
409,1,HEAT PUMP,Heat Pump Load Side Heat Transfer Rate [W] !Hourly
423,1,HEAT PUMP,Heat Pump Load Side Inlet Temperature [C] !Hourly
424,1,HEAT PUMP,Heat Pump Load Side Outlet Temperature [C] !Hourly
425,1,HEAT PUMP,Heat Pump Electricity Rate [W] !Hourly
500,1,SUPPLY PUMP,Pump Electricity Rate [W] !Hourly
501,1,SUPPLY PUMP,Pump Fluid Heat Gain Rate [W] !Hourly
502,1,SUPPLY PUMP,Pump Mass Flow Rate [kg/s] !Hourly
530,1,Baseboard Total Heating Rate All Zones,PythonPlugin:OutputVariable [W] !Hourly
End of Data Dictionary
1,WINTER DESIGN DAY IN (MID) UK,  53.35,  -2.28,   0.00,  69.00
2,1, 1,15, 0, 1, 0.00,60.00,WinterDesignDay
7,-3.0
8,20.998581806201788
143,20.998581806201788
206,20.998581806201788
269,20.998581806201788
332,45.99470072182113
395,498.19324484970593
396,0.0177436875
399,498.19324484970593
400,0.0177436875
403,498.19324484970593
404,0.0177436875
407,498.19324484970593
408,0.0177436875
409,1990.7120911521342
423,42.33088923028835
424,45.99470072182113
425,765.40150648745
500,1.9669774467029795
501,1.9669774467029795
502,0.12998674
530,1992.7729793988237
2,1, 1,15, 0, 2, 0.00,60.00,WinterDesignDay
7,-3.0
8,20.999210872248526
143,20.999210872248526
206,20.999210872248526
269,20.999210872248526
332,45.99487914553136
395,498.3317196396683
396,0.017772492187500002
399,498.3317196396683
400,0.017772492187500002
403,498.3317196396683
404,0.017772492187500002
407,498.3317196396683
408,0.017772492187500002
409,1991.2704880144363
423,42.330039950972086
424,45.99487914553136
425,765.6194421771393
500,1.9669767726123195
501,1.9669767726123195
502,0.12998674
530,1993.3268785586731
2,1, 1,15, 0, 3, 0.00,60.00,WinterDesignDay
7,-3.0
8,20.99896055915942
143,20.99896055915942
206,20.99896055915942
269,20.99896055915942
332,45.99504625373693
395,498.3477937816641
396,0.017772492187500002
399,498.3477937816641
400,0.017772492187500002
403,498.3477937816641
404,0.017772492187500002
407,498.3477937816641
408,0.017772492187500002
409,1991.2644978048513
423,42.330218083875216
424,45.99504625373693
425,765.620174095325
500,1.9669769140001934
501,1.9669769140001934
502,0.12998674
530,1993.3911751266564
2,1, 1,15, 0, 4, 0.00,60.00,WinterDesignDay
7,-3.0
8,20.998811300139927
143,20.998811300139927
206,20.998811300139927
269,20.998811300139927
332,45.99521151613419
395,498.1953732157986
396,0.0177436875
399,498.1953732157986
400,0.0177436875
403,498.1953732157986
404,0.0177436875
407,498.1953732157986
408,0.0177436875
409,1990.798292652777
423,42.33124137481471
424,45.99521151613419
425,765.4439230058797
500,1.9669777262079022
501,1.9669777262079022
502,0.12998674
530,1992.7814928631944
2,1, 1,15, 0, 5, 0.00,60.00,WinterDesignDay
7,-3.0
8,20.999178947445163
143,20.999178947445163
206,20.999178947445163
269,20.999178947445163
332,45.99540420596689
395,498.3466767878086
396,0.017772492187500002
399,498.3466767878086
400,0.017772492187500002
403,498.3466767878086
404,0.017772492187500002
407,498.3466767878086
408,0.017772492187500002
409,1991.3380653153727
423,42.330440638580015
424,45.99540420596689
425,765.654960022252
500,1.9669770906466701
501,1.9669770906466701
502,0.12998674
530,1993.3867071512343
2,1, 1,15, 0, 6, 0.00,60.00,WinterDesignDay
7,-3.0
8,20.99863081613963
143,20.99863081613963
206,20.99863081613963
269,20.99863081613963
332,45.995540736142175
395,498.2092391777546
396,0.0177436875
399,498.2092391777546
400,0.0177436875
403,498.2092391777546
404,0.0177436875
407,498.2092391777546
408,0.0177436875
409,1990.7760451222084
423,42.331611540350934
424,45.995540736142175
425,765.441345821909
500,1.9669780200165643
501,1.9669780200165643
502,0.12998674
530,1992.8369567110185
2,1, 1,15, 0, 7, 0.00,60.00,WinterDesignDay
7,-3.0
8,20.99918177576265
143,20.99918177576265
206,20.99918177576265
269,20.99918177576265
332,45.995754952818906
395,498.35372517495114
396,0.017772492187500002
399,498.35372517495114
400,0.017772492187500002
403,498.35372517495114
404,0.017772492187500002
407,498.35372517495114
408,0.017772492187500002
409,1991.3660211011427
423,42.330739934129944
424,45.995754952818906
425,765.6720782866761
500,1.9669773282040879
501,1.9669773282040879
502,0.12998674
530,1993.4149006998045
2,1, 1,15, 0, 8, 0.00,60.00,WinterDesignDay
7,-3.0
8,20.998658113398715
143,20.998658113398715
206,20.998658113398715
269,20.998658113398715
332,45.995890192475
395,498.2157397940436
396,0.0177436875
399,498.2157397940436
400,0.0177436875
403,498.2157397940436
404,0.0177436875
407,498.2157397940436
408,0.0177436875
409,1990.8019376880884
423,42.33191334264035
424,45.995890192475
425,765.4576455901256
500,1.9669782595638625
501,1.9669782595638625
502,0.12998674
530,1992.8629591761744
2,1, 1,15, 0, 9, 0.00,60.00,WinterDesignDay
7,-3.0
8,20.99854553075529
143,20.99854553075529
206,20.99854553075529
269,20.99854553075529
332,45.99609976648349
395,498.22547001606097
396,0.0177436875
399,498.22547001606097
400,0.0177436875
403,498.22547001606097
404,0.0177436875
407,498.22547001606097
408,0.0177436875
409,1990.8484440202835
423,42.332037323943055
424,45.99609976648349
425,765.4793319508032
500,1.9669783579706415
501,1.9669783579706415
502,0.12998674
530,1992.9018800642439
2,1, 1,15, 0,10, 0.00,60.00,WinterDesignDay
7,-3.0
8,20.99925976077448
143,20.99925976077448
206,20.99925976077448
269,20.99925976077448
332,45.99628975570429
395,498.35941409389
396,0.017772492187500002
399,498.35941409389
400,0.017772492187500002
403,498.35941409389
404,0.017772492187500002
407,498.35941409389
408,0.017772492187500002
409,1991.3815031531922
423,42.331246243030456
424,45.99628975570429
425,765.6877426482625
500,1.9669777300727302
501,1.9669777300727302
502,0.12998674
530,1993.43765637556
2,1, 1,15, 0,11, 0.00,60.00,WinterDesignDay
7,-3.0
8,20.9986460987998
143,20.9986460987998
206,20.9986460987998
269,20.9986460987998
332,45.9964478271364
395,498.2308096608117
396,0.0177436875
399,498.2308096608117
400,0.0177436875
403,498.2308096608117
404,0.0177436875
407,498.2308096608117
408,0.0177436875
409,1990.8693363344023
423,42.332346933279524
424,45.9964478271364
425,765.4936841336864
500,1.9669786037146546
501,1.9669786037146546
502,0.12998674
530,1992.9232386432468
2,1, 1,15, 0,12, 0.00,60.00,WinterDesignDay
7,-3.0
8,20.998551719099915
143,20.998551719099915
206,20.998551719099915
269,20.998551719099915
332,45.99666734202293
395,498.23694481400935
396,0.0177436875
399,498.23694481400935
400,0.0177436875
403,498.23694481400935
404,0.0177436875
407,498.23694481400935
408,0.0177436875
409,1990.894554047987
423,42.33252003615638
424,45.99666734202293
425,765.5073657879627
500,1.966978741110395
501,1.966978741110395
502,0.12998674
530,1992.9477792560374
2,1, 1,15, 0,13, 0.00,60.00,WinterDesignDay
7,-3.0
8,20.999178920417258
143,20.999178920417258
206,20.999178920417258
269,20.999178920417258
332,45.99690017937874
395,498.37713956024
396,0.017772492187500002
399,498.37713956024
400,0.017772492187500002
403,498.37713956024
404,0.017772492187500002
407,498.37713956024
408,0.017772492187500002
409,1991.460175647001
423,42.33171187369935
424,45.99690017937874
425,765.7290783137253
500,1.9669780996541544
501,1.9669780996541544
502,0.12998674
530,1993.50855824096
2,1, 1,15, 0,14, 0.00,60.00,WinterDesignDay
7,-3.0
8,20.9987235276129
143,20.9987235276129
206,20.9987235276129
269,20.9987235276129
332,45.997034486093455
395,498.23751564569466
396,0.0177436875
399,498.23751564569466
400,0.0177436875
403,498.23751564569466
404,0.0177436875
407,498.23751564569466
408,0.0177436875
409,1990.8888607723793
423,42.33289765843151
424,45.997034486093455
425,765.5118423457131
500,1.9669790408379582
501,1.9669790408379582
502,0.12998674
530,1992.9500625827786
2,1, 1,15, 0,15, 0.00,60.00,WinterDesignDay
7,-3.0
8,20.998659126091688
143,20.998659126091688
206,20.998659126091688
269,20.998659126091688
332,45.99723269914339
395,498.2460401177013
396,0.0177436875
399,498.2460401177013
400,0.0177436875
403,498.2460401177013
404,0.0177436875
407,498.2460401177013
408,0.0177436875
409,1990.930175584308
423,42.33301983352328
424,45.99723269914339
425,765.5313269023371
500,1.9669791378111836
501,1.9669791378111836
502,0.12998674
530,1992.9841604708051
2,1, 1,15, 0,16, 0.00,60.00,WinterDesignDay
7,-3.0
8,20.99861491640405
143,20.99861491640405
206,20.99861491640405
269,20.99861491640405
332,45.99744804309029
395,498.25144080627825
396,0.0177436875
399,498.25144080627825
400,0.0177436875
403,498.25144080627825
404,0.0177436875
407,498.25144080627825
408,0.0177436875
409,1990.9523023635747
423,42.333194454178994
424,45.99744804309029
425,765.5437446307553
500,1.9669792764116951
501,1.9669792764116951
502,0.12998674
530,1993.005763225113
2,1, 1,15, 0,17, 0.00,60.00,WinterDesignDay
7,-3.0
8,20.998594966437977
143,20.998594966437977
206,20.998594966437977
269,20.998594966437977
332,45.99767008956934
395,498.25636057724034
396,0.0177436875
399,498.25636057724034
400,0.0177436875
403,498.25636057724034
404,0.0177436875
407,498.25636057724034
408,0.0177436875
409,1990.972215132695
423,42.33337985214787
424,45.99767008956934
425,765.5554328220564
500,1.9669794235664344
501,1.9669794235664344
502,0.12998674
530,1993.0254423089614
2,1, 1,15, 0,18, 0.00,60.00,WinterDesignDay
7,-3.0
8,20.9985920890029
143,20.9985920890029
206,20.9985920890029
269,20.9985920890029
332,45.99789498553651
395,498.2609779016587
396,0.0177436875
399,498.2609779016587
400,0.0177436875
403,498.2609779016587
404,0.0177436875
407,498.2609779016587
408,0.0177436875
409,1990.9907789334154
423,42.333570582317435
424,45.99789498553651
425,765.5666541310438
500,1.9669795749534902
501,1.9669795749534902
502,0.12998674
530,1993.0439116066348
2,1, 1,15, 0,19, 0.00,60.00,WinterDesignDay
7,-3.0
8,20.998601820175836
143,20.998601820175836
206,20.998601820175836
269,20.998601820175836
332,45.998120080048736
395,498.26532670883915
396,0.0177436875
399,498.26532670883915
400,0.0177436875
403,498.26532670883915
404,0.0177436875
407,498.26532670883915
408,0.0177436875
409,1991.008153855599
423,42.33376369910679
424,45.998120080048736
425,765.5774219764961
500,1.9669797282348862
501,1.9669797282348862
502,0.12998674
530,1993.0613068353566
2,1, 1,15, 0,20, 0.00,60.00,WinterDesignDay
7,-3.0
8,20.998621295724934
143,20.998621295724934
206,20.998621295724934
269,20.998621295724934
332,45.99834341942307
395,498.26943891466794
396,0.0177436875
399,498.26943891466794
400,0.0177436875
403,498.26943891466794
404,0.0177436875
407,498.26943891466794
408,0.0177436875
409,1991.0245110996675
423,42.33395693374672
424,45.99834341942307
425,765.5877667088045
500,1.9669798816098467
501,1.9669798816098467
502,0.12998674
530,1993.0777556586718
2,1, 1,15, 0,21, 0.00,60.00,WinterDesignDay
7,-3.0
8,20.99864894137886
143,20.99864894137886
206,20.99864894137886
269,20.99864894137886
332,45.998563476288545
395,498.2733171574955
396,0.0177436875
399,498.2733171574955
400,0.0177436875
403,498.2733171574955
404,0.0177436875
407,498.2733171574955
408,0.0177436875
409,1991.0398757145026
423,42.33414871276496
424,45.998563476288545
425,765.5976702207063
500,1.9669800338294694
501,1.9669800338294694
502,0.12998674
530,1993.093268629982
2,1, 1,15, 0,22, 0.00,60.00,WinterDesignDay
7,-3.0
8,20.998683484243895
143,20.998683484243895
206,20.998683484243895
269,20.998683484243895
332,45.99877896919444
395,498.2769627278967
396,0.0177436875
399,498.2769627278967
400,0.0177436875
403,498.2769627278967
404,0.0177436875
407,498.2769627278967
408,0.0177436875
409,1991.0542510028617
423,42.33433774863223
424,45.99877896919444
425,765.6071105076887
500,1.9669801838718102
501,1.9669801838718102
502,0.12998674
530,1993.1078509115869
2,1, 1,15, 0,23, 0.00,60.00,WinterDesignDay
7,-3.0
8,20.998723825944005
143,20.998723825944005
206,20.998723825944005
269,20.998723825944005
332,45.99898881690197
395,498.28037581889276
396,0.0177436875
399,498.28037581889276
400,0.0177436875
403,498.28037581889276
404,0.0177436875
407,498.28037581889276
408,0.0177436875
409,1991.0676612731138
423,42.33452291537134
424,45.99898881690197
425,765.616077277253
500,1.9669803308431526
501,1.9669803308431526
502,0.12998674
530,1993.121503275571
2,1, 1,15, 0,24, 0.00,60.00,WinterDesignDay
7,-3.0
8,20.998769005682984
143,20.998769005682984
206,20.998769005682984
269,20.998769005682984
332,45.99919211101133
395,498.28355845452654
396,0.0177436875
399,498.28355845452654
400,0.0177436875
403,498.28355845452654
404,0.0177436875
407,498.28355845452654
408,0.0177436875
409,1991.0801087747368
423,42.33470330044243
424,45.99919211101133
425,765.6245548928571
500,1.9669804740191896
501,1.9669804740191896
502,0.12998674
530,1993.1342338181062
End of Data
 Number of Records Written=         528
