Program Version,EnergyPlus, Version 24.2.0-94a887817b, YMD=2026.01.14 16:17
1,5,Environment Title[],Latitude[deg],Longitude[deg],Time Zone[],Elevation[m]
2,8,Day of Simulation[],Month[],Day of Month[],DST Indicator[1=yes 0=no],Hour[],StartMinute[],EndMinute[],DayType
3,5,Cumulative Day of Simulation[],Month[],Day of Month[],DST Indicator[1=yes 0=no],DayType  ! When Daily Report Variables Requested
4,2,Cumulative Days of Simulation[],Month[]  ! When Monthly Report Variables Requested
5,1,Cumulative Days of Simulation[] ! When Run Period Report Variables Requested
6,1,Calendar Year of Simulation[] ! When Annual Report Variables Requested
7,1,Environment,Site Outdoor Air Drybulb Temperature [C] !Hourly
8,1,Z1,Zone Operative Temperature [C] !Hourly
9,1,Z2,Zone Operative Temperature [C] !Hourly
10,1,Z3,Zone Operative Temperature [C] !Hourly
11,1,Z4,Zone Operative Temperature [C] !Hourly
12,1,Z1,Zone Air Temperature [C] !Hourly
147,1,Z2,Zone Air Temperature [C] !Hourly
210,1,Z3,Zone Air Temperature [C] !Hourly
273,1,Z4,Zone Air Temperature [C] !Hourly
336,1,HOT WATER LOOP,Plant Supply Side Outlet Temperature [C] !Hourly
399,1,Z1 RADIATOR,Baseboard Total Heating Rate [W] !Hourly
400,1,Z1 RADIATOR,Baseboard Hot Water Mass Flow Rate [kg/s] !Hourly
403,1,Z2 RADIATOR,Baseboard Total Heating Rate [W] !Hourly
404,1,Z2 RADIATOR,Baseboard Hot Water Mass Flow Rate [kg/s] !Hourly
407,1,Z3 RADIATOR,Baseboard Total Heating Rate [W] !Hourly
408,1,Z3 RADIATOR,Baseboard Hot Water Mass Flow Rate [kg/s] !Hourly
411,1,Z4 RADIATOR,Baseboard Total Heating Rate [W] !Hourly
412,1,Z4 RADIATOR,Baseboard Hot Water Mass Flow Rate [kg/s] !Hourly
413,1,HEAT PUMP,Heat Pump Load Side Heat Transfer Rate [W] !Hourly
427,1,HEAT PUMP,Heat Pump Load Side Inlet Temperature [C] !Hourly
428,1,HEAT PUMP,Heat Pump Electricity Rate [W] !Hourly
503,1,SUPPLY PUMP,Pump Electricity Rate [W] !Hourly
504,1,SUPPLY PUMP,Pump Fluid Heat Gain Rate [W] !Hourly
505,1,SUPPLY PUMP,Pump Mass Flow Rate [kg/s] !Hourly
533,1,Baseboard Total Heating Rate All Zones,PythonPlugin:OutputVariable [W] !Hourly
End of Data Dictionary
1,WINTER DESIGN DAY IN (MID) UK,  53.35,  -2.28,   0.00,  69.00
2,1, 1,15, 0, 1, 0.00,60.00,WinterDesignDay
7,-3.0
8,18.43201481623196
9,18.00001860954019
10,18.000018609541247
11,18.432014816232165
12,20.367183788860782
147,19.701738981445114
210,19.701738981446113
273,20.367183788861055
336,51.27
399,481.77257461492695
400,0.029496
403,431.9967470996265
404,0.0101680546875
407,431.996747099612
408,0.0101680546875
411,481.77257461492013
412,0.029496
413,1825.211568751139
427,47.9112522547063
428,789.5736779603164
503,1.9716488442166968
504,1.9716488442166968
505,0.12998674
533,1827.5386434290858
2,1, 1,15, 0, 2, 0.00,60.00,WinterDesignDay
7,-3.0
8,18.432061812627413
9,17.99915799324537
10,17.999157993246037
11,18.43206181262675
12,20.367219659181785
147,19.700055735823966
210,19.70005573582462
273,20.367219659181277
336,51.27
399,481.77202811501513
400,0.029496
403,431.83691543937647
404,0.01013925
407,431.8369154393661
408,0.01013925
411,481.77202811501974
412,0.029496
413,1824.8390582462239
427,47.911937857930425
428,789.4125325377911
503,1.9716494456593507
504,1.9716494456593507
505,0.12998674
533,1827.2178871087774
2,1, 1,15, 0, 3, 0.00,60.00,WinterDesignDay
7,-3.0
8,18.432010664759
9,17.9997051517621
10,17.999705151762203
11,18.432010664757346
12,20.367182079636496
147,19.701225492531165
210,19.70122549253133
273,20.367182079635086
336,51.27
399,481.7724634187988
400,0.029496
403,432.00760916084255
404,0.010168054687500002
407,432.00760916083834
408,0.010168054687500002
411,481.7724634188172
412,0.029496
413,1825.1853180789426
427,47.911300568507336
428,789.5623221042888
503,1.9716488865998214
504,1.9716488865998214
505,0.12998674
533,1827.560145159297
2,1, 1,15, 0, 4, 0.00,60.00,WinterDesignDay
7,-3.0
8,18.43200640667378
9,17.99941148731334
10,17.999411487312663
11,18.432006406671263
12,20.367182922855182
147,19.70074354183169
210,19.700743541831145
273,20.36718292285296
336,51.27
399,481.7724094821717
400,0.029496
403,432.0263191338812
404,0.0101680546875
407,432.02631913388603
408,0.0101680546875
411,481.77240948220333
412,0.029496
413,1825.1733697196582
427,47.91132255822712
428,789.5571533281604
503,1.9716489058902258
504,1.9716489058902258
505,0.12998674
533,1827.5974572321425
2,1, 1,15, 0, 5, 0.00,60.00,WinterDesignDay
7,-3.0
8,18.431998001120967
9,17.99999257491382
10,17.99999257491246
11,18.431998001118068
12,20.36716894691937
147,19.701713768422398
210,19.701713768421204
273,20.367168946916742
336,51.27
399,481.77282091697833
400,0.029496
403,431.99697334957364
404,0.0101680546875
407,431.9969733495881
408,0.0101680546875
411,481.7728209170186
412,0.029496
413,1825.2124333601437
427,47.911250663655906
428,789.5740519840864
503,1.971648842820954
504,1.971648842820954
505,0.12998674
533,1827.5395885331586
2,1, 1,15, 0, 6, 0.00,60.00,WinterDesignDay
7,-3.0
8,18.43204634731933
9,17.999136765391953
10,17.999136765390276
11,18.432046347316536
12,20.367205946317135
147,19.700036339329117
210,19.70003633932759
273,20.367205946314556
336,51.27
399,481.7722463791464
400,0.029496
403,431.83717490656846
404,0.01013925
407,431.83717490658864
408,0.01013925
411,481.7722463791871
412,0.029496
413,1824.8400115014765
427,47.91193610107351
428,789.4129449093039
503,1.9716494441181536
504,1.9716494441181536
505,0.12998674
533,1827.2188425714905
2,1, 1,15, 0, 7, 0.00,60.00,WinterDesignDay
7,-3.0
8,18.43199634712357
9,17.999686477861097
10,17.99968647785954
11,18.431996347121178
12,20.367169345527103
147,19.701208302949595
210,19.701208302948128
273,20.367169345524868
336,51.27
399,481.7726655139403
400,0.029496
403,432.00785071728995
404,0.010168054687500002
407,432.0078507173105
408,0.010168054687500002
411,481.7726655139767
412,0.029496
413,1825.1862080021372
427,47.91129893087388
428,789.5627070787989
503,1.9716488851632137
504,1.9716488851632137
505,0.12998674
533,1827.5610324625172
2,1, 1,15, 0, 8, 0.00,60.00,WinterDesignDay
7,-3.0
8,18.432040956826953
9,17.999818146791032
10,17.999818146789703
11,18.43204095682482
12,20.36720114908079
147,19.701324093097906
210,19.701324093096655
273,20.36720114907881
336,51.27
399,481.77243374069354
400,0.029496
403,432.0065952495987
404,0.010168054687500002
407,432.00659524961634
408,0.010168054687500002
411,481.77243374072486
412,0.029496
413,1825.1804842260165
427,47.91130946374604
428,789.5602310135356
503,1.9716488944031363
504,1.9716488944031363
505,0.12998674
533,1827.5580579806337
2,1, 1,15, 0, 9, 0.00,60.00,WinterDesignDay
7,-3.0
8,18.43202198067895
9,17.99947092012728
10,17.999470920125823
11,18.432021980676787
12,20.367196013188106
147,19.700830584566116
210,19.700830584564777
273,20.367196013186117
336,51.27
399,481.7721310456956
400,0.029496
403,432.0252817753106
404,0.0101680546875
407,432.025281775328
408,0.0101680546875
411,481.77213104572644
412,0.029496
413,1825.1720382577523
427,47.91132500837838
428,789.5565773471111
503,1.9716489080396138
504,1.9716489080396138
505,0.12998674
533,1827.5948256420606
2,1, 1,15, 0,10, 0.00,60.00,WinterDesignDay
7,-3.0
8,18.432013190094573
9,18.000016838014893
10,18.000016838012968
11,18.432013190092288
12,20.367182316118843
147,19.70173735951098
210,19.701737359509234
273,20.367182316116747
336,51.27
399,481.7725979654849
400,0.029496
403,431.9967697211493
404,0.0101680546875
407,431.9967697211715
408,0.0101680546875
411,481.7725979655167
412,0.029496
413,1825.2116609095265
427,47.911252085116764
428,789.5737178273862
503,1.971648844067925
504,1.971648844067925
505,0.12998674
533,1827.5387353733224
2,1, 1,15, 0,11, 0.00,60.00,WinterDesignDay
7,-3.0
8,18.43206029317364
9,17.999156346331088
10,17.999156346328704
11,18.43206029317129
12,20.367218282107416
147,19.70005422287171
210,19.70005422286954
273,20.367218282105256
336,51.27
399,481.77204994534605
400,0.029496
403,431.83693648330416
404,0.01013925
407,431.8369364833326
408,0.01013925
411,481.7720499453803
412,0.029496
413,1824.8391441577971
427,47.91193769983626
428,789.4125697025329
503,1.971649445520663
504,1.971649445520663
505,0.12998674
533,1827.2179728573628
2,1, 1,15, 0,12, 0.00,60.00,WinterDesignDay
7,-3.0
8,18.432009243381458
9,17.99970362497813
10,17.999703624975382
11,18.432009243379216
12,20.36718079073245
147,19.701224093461903
210,19.701224093459384
273,20.367180790730373
336,51.27
399,481.7724838466694
400,0.029496
403,432.0076286888508
404,0.010168054687500002
407,432.00762868888404
408,0.010168054687500002
411,481.772483846702
412,0.029496
413,1825.1853981649397
427,47.91130042113337
428,789.5623567489272
503,1.971648886470538
504,1.971648886470538
505,0.12998674
533,1827.5602250711063
2,1, 1,15, 0,13, 0.00,60.00,WinterDesignDay
7,-3.0
8,18.43200507663721
9,17.99941006523821
10,17.999410065235228
11,18.432005076635043
12,20.3671817160782
147,19.700742236314007
210,19.70074223631125
273,20.36718171607619
336,51.27
399,481.7724286067781
400,0.029496
403,432.0263373567462
404,0.0101680546875
407,432.02633735678313
408,0.0101680546875
411,481.7724286068096
412,0.029496
413,1825.1734445517668
427,47.911322420521344
428,789.5571857000037
503,1.9716489057694238
504,1.9716489057694238
505,0.12998674
533,1827.5975319271172
2,1, 1,15, 0,14, 0.00,60.00,WinterDesignDay
7,-3.0
8,18.43199675597266
9,17.99999125618912
10,17.999991256185996
11,18.431996755970786
12,20.367167816503514
147,19.701712562065005
210,19.701712562062113
273,20.367167816501752
336,51.27
399,481.77283883085033
400,0.029496
403,431.9969901425004
404,0.0101680546875
407,431.9969901425394
408,0.0101680546875
411,481.7728388308792
412,0.029496
413,1825.2125029293388
427,47.91125053563492
428,789.5740820792305
503,1.9716488427086483
504,1.9716488427086483
505,0.12998674
533,1827.5396579467692
2,1, 1,15, 0,15, 0.00,60.00,WinterDesignDay
7,-3.0
8,18.432045181749892
9,17.99913553273952
10,17.99913553273614
11,18.432045181748272
12,20.367204887536147
147,19.700035206892466
210,19.700035206889353
273,20.367204887534633
336,51.27
399,481.7722631571713
400,0.029496
403,431.83719063327993
404,0.01013925
407,431.8371906333216
408,0.01013925
411,481.7722631571955
412,0.029496
413,1824.840076625679
427,47.91193598123219
428,789.4129730815756
503,1.971649444013023
504,1.971649444013023
505,0.12998674
533,1827.2189075809683
2,1, 1,15, 0,16, 0.00,60.00,WinterDesignDay
7,-3.0
8,18.431995255187296
9,17.99968533087987
10,17.999685330876016
11,18.431995255185647
12,20.3671683531994
147,19.70120725226849
210,19.701207252264954
273,20.36716835319789
336,51.27
399,481.77268123657524
400,0.029496
403,432.00786537215555
404,0.010168054687500002
407,432.0078653722022
408,0.010168054687500002
411,481.7726812365982
412,0.029496
413,1825.1862688858005
427,47.91129881883599
428,789.5627334166431
503,1.9716488850649287
504,1.9716488850649287
505,0.12998674
533,1827.5610932175314
2,1, 1,15, 0,17, 0.00,60.00,WinterDesignDay
7,-3.0
8,18.432039934178
9,17.999817078228784
10,17.999817078224424
11,18.432039934176018
12,20.367200219201273
147,19.701323114641973
210,19.70132311463796
273,20.367200219199475
336,51.27
399,481.7724484753494
400,0.029496
403,432.0066088584017
404,0.010168054687500002
407,432.00660885845514
408,0.010168054687500002
411,481.77244847537594
412,0.029496
413,1825.1805410213728
427,47.911309359231424
428,789.5602555828071
503,1.9716488943114512
504,1.9716488943114512
505,0.12998674
533,1827.5581146675822
2,1, 1,15, 0,18, 0.00,60.00,WinterDesignDay
7,-3.0
8,18.432021022606758
9,17.99946991968249
10,17.999469919678006
11,18.432021022604495
12,20.36719514166662
147,19.700829666003248
210,19.70082966599908
273,20.367195141664556
336,51.27
399,481.7721448535602
400,0.029496
403,432.0252945988691
404,0.0101680546875
407,432.0252945989263
408,0.0101680546875
411,481.7721448535915
412,0.029496
413,1825.1720916154413
427,47.911324910189755
428,789.5566004292721
503,1.9716489079534782
504,1.9716489079534782
505,0.12998674
533,1827.594878904947
2,1, 1,15, 0,19, 0.00,60.00,WinterDesignDay
7,-3.0
8,18.432012292303313
9,18.000015907626633
10,18.000015907622593
11,18.432012292301096
12,20.367181499053547
147,19.70173650870768
210,19.701736508703856
273,20.367181499051494
336,51.27
399,481.7726109112177
400,0.029496
403,431.99678156001545
404,0.0101680546875
407,431.99678156006973
408,0.0101680546875
411,481.7726109112501
412,0.029496
413,1825.2117105881061
427,47.911251993698414
428,789.5737393179902
503,1.9716488439877287
504,1.9716488439877287
505,0.12998674
533,1827.538784942553
2,1, 1,15, 0,20, 0.00,60.00,WinterDesignDay
7,-3.0
8,18.43205945220312
9,17.999155473851406
10,17.999155473848123
11,18.43205945220122
12,20.367217516378116
147,19.70005342112653
210,19.70005342112339
273,20.367217516376332
336,51.27
399,481.772062078006
400,0.029496
403,431.83694760617755
404,0.01013925
407,431.83694760622296
408,0.01013925
411,481.77206207803465
412,0.029496
413,1824.8391907469304
427,47.91193761410311
428,789.4125898566641
503,1.9716494454454538
504,1.9716494454454538
505,0.12998674
533,1827.218019368441
2,1, 1,15, 0,21, 0.00,60.00,WinterDesignDay
7,-3.0
8,18.432008455108207
9,17.999702811401626
10,17.999702811399118
11,18.43200845510647
12,20.3671800727415
147,19.701223348282014
210,19.701223348279587
273,20.367180072739888
336,51.27
399,481.77249522152727
400,0.029496
403,432.0076390788019
404,0.010168054687500002
407,432.00763907883754
408,0.010168054687500002
411,481.77249522155245
412,0.029496
413,1825.185441785593
427,47.91130034086281
428,789.562375618915
503,1.9716488864001214
504,1.9716488864001214
505,0.12998674
533,1827.5602686007192
2,1, 1,15, 0,22, 0.00,60.00,WinterDesignDay
7,-3.0
8,18.43200433793546
9,17.999409302976137
10,17.999409302974218
11,18.432004337933634
12,20.367181042967005
147,19.700741536415762
210,19.700741536413904
273,20.367181042965328
336,51.27
399,481.77243927091945
400,0.029496
403,432.02634711801426
404,0.0101680546875
407,432.0263471180412
408,0.0101680546875
411,481.7724392709453
412,0.029496
413,1825.173485471646
427,47.911322345220725
428,789.5572034016556
503,1.9716489057033668
504,1.9716489057033668
505,0.12998674
533,1827.5975727779203
2,1, 1,15, 0,23, 0.00,60.00,WinterDesignDay
7,-3.0
8,18.43199606364236
9,17.999990546739994
10,17.999990546738367
11,18.43199606364049
12,20.367167185376587
147,19.701711913506358
210,19.701711913504806
273,20.367167185374853
336,51.27
399,481.7728488303977
400,0.029496
403,431.9969991587649
404,0.0101680546875
407,431.99699915878676
408,0.0101680546875
411,481.7728488304249
412,0.029496
413,1825.212541044673
427,47.911250465495215
428,789.5740985676558
503,1.9716488426471188
504,1.9716488426471188
505,0.12998674
533,1827.5396959783743
2,1, 1,15, 0,24, 0.00,60.00,WinterDesignDay
7,-3.0
8,18.432044533174135
9,17.999134866509525
10,17.999134866507866
11,18.432044533172586
12,20.367204296036064
147,19.700034594645306
210,19.700034594643757
273,20.367204296034597
336,51.27
399,481.77227252911086
400,0.029496
403,431.8371991235142
404,0.01013925
407,431.83719912353513
408,0.01013925
411,481.77227252913536
412,0.029496
413,1824.8401124090256
427,47.91193591538381
428,789.4129885611994
503,1.9716494439552579
504,1.9716494439552579
505,0.12998674
533,1827.2189433052956
End of Data
 Number of Records Written=         600
