Program Version,EnergyPlus, Version 24.2.0-94a887817b, YMD=2025.06.23 16:23
1,5,Environment Title[],Latitude[deg],Longitude[deg],Time Zone[],Elevation[m]
2,8,Day of Simulation[],Month[],Day of Month[],DST Indicator[1=yes 0=no],Hour[],StartMinute[],EndMinute[],DayType
3,5,Cumulative Day of Simulation[],Month[],Day of Month[],DST Indicator[1=yes 0=no],DayType  ! When Daily Report Variables Requested
4,2,Cumulative Days of Simulation[],Month[]  ! When Monthly Report Variables Requested
5,1,Cumulative Days of Simulation[] ! When Run Period Report Variables Requested
6,1,Calendar Year of Simulation[] ! When Annual Report Variables Requested
7,1,Environment,Site Outdoor Air Drybulb Temperature [C] !Hourly
8,1,EXT SURFACE EAST SOUTH,Surface Inside Face Temperature [C] !Hourly
9,1,EXT SURFACE EAST SOUTH,Surface Outside Face Temperature [C] !Hourly
10,1,EXT SURFACE EAST SOUTH,Surface Inside Face Adjacent Air Temperature [C] !Hourly
11,1,EXT SURFACE EAST SOUTH,Surface Outside Face Outdoor Air Drybulb Temperature [C] !Hourly
12,1,EXT SURFACE EAST SOUTH,Surface Average Face Conduction Heat Transfer Rate [W] !Hourly
13,1,EXT SURFACE SOUTH EAST,Surface Inside Face Temperature [C] !Hourly
14,1,EXT SURFACE SOUTH EAST,Surface Outside Face Temperature [C] !Hourly
15,1,EXT SURFACE SOUTH EAST,Surface Inside Face Adjacent Air Temperature [C] !Hourly
16,1,EXT SURFACE SOUTH EAST,Surface Outside Face Outdoor Air Drybulb Temperature [C] !Hourly
17,1,EXT SURFACE SOUTH EAST,Surface Average Face Conduction Heat Transfer Rate [W] !Hourly
18,1,EXT SURFACE ROOF SE,Surface Inside Face Temperature [C] !Hourly
19,1,EXT SURFACE ROOF SE,Surface Outside Face Temperature [C] !Hourly
20,1,EXT SURFACE ROOF SE,Surface Inside Face Adjacent Air Temperature [C] !Hourly
21,1,EXT SURFACE ROOF SE,Surface Outside Face Outdoor Air Drybulb Temperature [C] !Hourly
22,1,EXT SURFACE ROOF SE,Surface Average Face Conduction Heat Transfer Rate [W] !Hourly
23,1,PZ1Z2,Surface Inside Face Temperature [C] !Hourly
24,1,PZ1Z2,Surface Outside Face Temperature [C] !Hourly
25,1,PZ1Z2,Surface Inside Face Adjacent Air Temperature [C] !Hourly
26,1,PZ1Z2,Surface Average Face Conduction Heat Transfer Rate [W] !Hourly
27,1,PZ1Z3,Surface Inside Face Temperature [C] !Hourly
28,1,PZ1Z3,Surface Outside Face Temperature [C] !Hourly
29,1,PZ1Z3,Surface Inside Face Adjacent Air Temperature [C] !Hourly
30,1,PZ1Z3,Surface Average Face Conduction Heat Transfer Rate [W] !Hourly
31,1,EXT SURFACE FLOOR SE,Surface Inside Face Temperature [C] !Hourly
32,1,EXT SURFACE FLOOR SE,Surface Outside Face Temperature [C] !Hourly
33,1,EXT SURFACE FLOOR SE,Surface Inside Face Adjacent Air Temperature [C] !Hourly
34,1,EXT SURFACE FLOOR SE,Surface Average Face Conduction Heat Transfer Rate [W] !Hourly
35,1,EXT SURFACE SOUTH WEST,Surface Inside Face Temperature [C] !Hourly
36,1,EXT SURFACE SOUTH WEST,Surface Outside Face Temperature [C] !Hourly
37,1,EXT SURFACE SOUTH WEST,Surface Inside Face Adjacent Air Temperature [C] !Hourly
38,1,EXT SURFACE SOUTH WEST,Surface Outside Face Outdoor Air Drybulb Temperature [C] !Hourly
39,1,EXT SURFACE SOUTH WEST,Surface Average Face Conduction Heat Transfer Rate [W] !Hourly
40,1,EXT SURFACE WEST SOUTH,Surface Inside Face Temperature [C] !Hourly
41,1,EXT SURFACE WEST SOUTH,Surface Outside Face Temperature [C] !Hourly
42,1,EXT SURFACE WEST SOUTH,Surface Inside Face Adjacent Air Temperature [C] !Hourly
43,1,EXT SURFACE WEST SOUTH,Surface Outside Face Outdoor Air Drybulb Temperature [C] !Hourly
44,1,EXT SURFACE WEST SOUTH,Surface Average Face Conduction Heat Transfer Rate [W] !Hourly
45,1,EXT SURFACE ROOF SW,Surface Inside Face Temperature [C] !Hourly
46,1,EXT SURFACE ROOF SW,Surface Outside Face Temperature [C] !Hourly
47,1,EXT SURFACE ROOF SW,Surface Inside Face Adjacent Air Temperature [C] !Hourly
48,1,EXT SURFACE ROOF SW,Surface Outside Face Outdoor Air Drybulb Temperature [C] !Hourly
49,1,EXT SURFACE ROOF SW,Surface Average Face Conduction Heat Transfer Rate [W] !Hourly
50,1,PZ2Z1,Surface Inside Face Temperature [C] !Hourly
51,1,PZ2Z1,Surface Outside Face Temperature [C] !Hourly
52,1,PZ2Z1,Surface Inside Face Adjacent Air Temperature [C] !Hourly
53,1,PZ2Z1,Surface Average Face Conduction Heat Transfer Rate [W] !Hourly
54,1,PZ2Z4,Surface Inside Face Temperature [C] !Hourly
55,1,PZ2Z4,Surface Outside Face Temperature [C] !Hourly
56,1,PZ2Z4,Surface Inside Face Adjacent Air Temperature [C] !Hourly
57,1,PZ2Z4,Surface Average Face Conduction Heat Transfer Rate [W] !Hourly
58,1,EXT SURFACE FLOOR SW,Surface Inside Face Temperature [C] !Hourly
59,1,EXT SURFACE FLOOR SW,Surface Outside Face Temperature [C] !Hourly
60,1,EXT SURFACE FLOOR SW,Surface Inside Face Adjacent Air Temperature [C] !Hourly
61,1,EXT SURFACE FLOOR SW,Surface Average Face Conduction Heat Transfer Rate [W] !Hourly
62,1,EXT SURFACE NORTH EAST,Surface Inside Face Temperature [C] !Hourly
63,1,EXT SURFACE NORTH EAST,Surface Outside Face Temperature [C] !Hourly
64,1,EXT SURFACE NORTH EAST,Surface Inside Face Adjacent Air Temperature [C] !Hourly
65,1,EXT SURFACE NORTH EAST,Surface Outside Face Outdoor Air Drybulb Temperature [C] !Hourly
66,1,EXT SURFACE NORTH EAST,Surface Average Face Conduction Heat Transfer Rate [W] !Hourly
67,1,EXT SURFACE EAST NORTH,Surface Inside Face Temperature [C] !Hourly
68,1,EXT SURFACE EAST NORTH,Surface Outside Face Temperature [C] !Hourly
69,1,EXT SURFACE EAST NORTH,Surface Inside Face Adjacent Air Temperature [C] !Hourly
70,1,EXT SURFACE EAST NORTH,Surface Outside Face Outdoor Air Drybulb Temperature [C] !Hourly
71,1,EXT SURFACE EAST NORTH,Surface Average Face Conduction Heat Transfer Rate [W] !Hourly
72,1,EXT SURFACE ROOF NE,Surface Inside Face Temperature [C] !Hourly
73,1,EXT SURFACE ROOF NE,Surface Outside Face Temperature [C] !Hourly
74,1,EXT SURFACE ROOF NE,Surface Inside Face Adjacent Air Temperature [C] !Hourly
75,1,EXT SURFACE ROOF NE,Surface Outside Face Outdoor Air Drybulb Temperature [C] !Hourly
76,1,EXT SURFACE ROOF NE,Surface Average Face Conduction Heat Transfer Rate [W] !Hourly
77,1,PZ3Z1,Surface Inside Face Temperature [C] !Hourly
78,1,PZ3Z1,Surface Outside Face Temperature [C] !Hourly
79,1,PZ3Z1,Surface Inside Face Adjacent Air Temperature [C] !Hourly
80,1,PZ3Z1,Surface Average Face Conduction Heat Transfer Rate [W] !Hourly
81,1,PZ3Z4,Surface Inside Face Temperature [C] !Hourly
82,1,PZ3Z4,Surface Outside Face Temperature [C] !Hourly
83,1,PZ3Z4,Surface Inside Face Adjacent Air Temperature [C] !Hourly
84,1,PZ3Z4,Surface Average Face Conduction Heat Transfer Rate [W] !Hourly
85,1,EXT SURFACE FLOOR NE,Surface Inside Face Temperature [C] !Hourly
86,1,EXT SURFACE FLOOR NE,Surface Outside Face Temperature [C] !Hourly
87,1,EXT SURFACE FLOOR NE,Surface Inside Face Adjacent Air Temperature [C] !Hourly
88,1,EXT SURFACE FLOOR NE,Surface Average Face Conduction Heat Transfer Rate [W] !Hourly
89,1,EXT SURFACE NORTH WEST,Surface Inside Face Temperature [C] !Hourly
90,1,EXT SURFACE NORTH WEST,Surface Outside Face Temperature [C] !Hourly
91,1,EXT SURFACE NORTH WEST,Surface Inside Face Adjacent Air Temperature [C] !Hourly
92,1,EXT SURFACE NORTH WEST,Surface Outside Face Outdoor Air Drybulb Temperature [C] !Hourly
93,1,EXT SURFACE NORTH WEST,Surface Average Face Conduction Heat Transfer Rate [W] !Hourly
94,1,EXT SURFACE WEST NORTH,Surface Inside Face Temperature [C] !Hourly
95,1,EXT SURFACE WEST NORTH,Surface Outside Face Temperature [C] !Hourly
96,1,EXT SURFACE WEST NORTH,Surface Inside Face Adjacent Air Temperature [C] !Hourly
97,1,EXT SURFACE WEST NORTH,Surface Outside Face Outdoor Air Drybulb Temperature [C] !Hourly
98,1,EXT SURFACE WEST NORTH,Surface Average Face Conduction Heat Transfer Rate [W] !Hourly
99,1,EXT SURFACE ROOF NW,Surface Inside Face Temperature [C] !Hourly
100,1,EXT SURFACE ROOF NW,Surface Outside Face Temperature [C] !Hourly
101,1,EXT SURFACE ROOF NW,Surface Inside Face Adjacent Air Temperature [C] !Hourly
102,1,EXT SURFACE ROOF NW,Surface Outside Face Outdoor Air Drybulb Temperature [C] !Hourly
103,1,EXT SURFACE ROOF NW,Surface Average Face Conduction Heat Transfer Rate [W] !Hourly
104,1,PZ4Z2,Surface Inside Face Temperature [C] !Hourly
105,1,PZ4Z2,Surface Outside Face Temperature [C] !Hourly
106,1,PZ4Z2,Surface Inside Face Adjacent Air Temperature [C] !Hourly
107,1,PZ4Z2,Surface Average Face Conduction Heat Transfer Rate [W] !Hourly
108,1,PZ4Z3,Surface Inside Face Temperature [C] !Hourly
109,1,PZ4Z3,Surface Outside Face Temperature [C] !Hourly
110,1,PZ4Z3,Surface Inside Face Adjacent Air Temperature [C] !Hourly
111,1,PZ4Z3,Surface Average Face Conduction Heat Transfer Rate [W] !Hourly
112,1,EXT SURFACE FLOOR NW,Surface Inside Face Temperature [C] !Hourly
113,1,EXT SURFACE FLOOR NW,Surface Outside Face Temperature [C] !Hourly
114,1,EXT SURFACE FLOOR NW,Surface Inside Face Adjacent Air Temperature [C] !Hourly
115,1,EXT SURFACE FLOOR NW,Surface Average Face Conduction Heat Transfer Rate [W] !Hourly
116,1,Z1,Zone Air Temperature [C] !Hourly
117,1,Z1,Zone Air System Sensible Heating Energy [J] !Hourly
251,1,Z1,Zone Predicted Sensible Load to Setpoint Heat Transfer Rate [W] !Hourly
252,1,Z2,Zone Air Temperature [C] !Hourly
253,1,Z2,Zone Air System Sensible Heating Energy [J] !Hourly
315,1,Z2,Zone Predicted Sensible Load to Setpoint Heat Transfer Rate [W] !Hourly
316,1,Z3,Zone Air Temperature [C] !Hourly
317,1,Z3,Zone Air System Sensible Heating Energy [J] !Hourly
379,1,Z3,Zone Predicted Sensible Load to Setpoint Heat Transfer Rate [W] !Hourly
380,1,Z4,Zone Air Temperature [C] !Hourly
381,1,Z4,Zone Air System Sensible Heating Energy [J] !Hourly
443,1,Z4,Zone Predicted Sensible Load to Setpoint Heat Transfer Rate [W] !Hourly
542,1,Z1 PURCHASED AIR,Zone Ideal Loads Zone Total Heating Rate [W] !Hourly
545,1,Z2 PURCHASED AIR,Zone Ideal Loads Zone Total Heating Rate [W] !Hourly
548,1,Z3 PURCHASED AIR,Zone Ideal Loads Zone Total Heating Rate [W] !Hourly
551,1,Z4 PURCHASED AIR,Zone Ideal Loads Zone Total Heating Rate [W] !Hourly
446,1,DistrictHeatingWater:Facility [J] !Hourly
End of Data Dictionary
1,SUMMER DESIGN DAY IN SALFORD ENERGY HOUSE 1.0 (01-01:31-12) JUN HVAC Sizing Pass 1,  53.35,  -2.28,   0.00,  69.00
2,1, 6,15, 1, 1, 0.00,60.00,SummerDesignDay
7,18.983
8,21.089825296156626
9,19.092906643637612
10,21.523085483603367
11,18.985274999051487
12,-12.329763014780413
13,21.089825296156626
14,19.092906643637612
15,21.523085483603367
16,18.985274999051487
17,-12.329763014780413
18,21.17780310196405
19,19.090322440067407
20,21.523085483603367
21,18.97780000310887
22,-22.41552978459884
23,21.737092854756142
24,21.73709285613937
25,21.523085483603367
26,1.678439019991984e-7
27,21.737092853222524
28,21.737092853730804
29,21.523085483603367
30,6.168251187599338e-8
31,21.523658424696464
32,18.0
33,21.523085483603367
34,-0.0005554535447797384
35,21.089825303261247
36,19.092906644001232
37,21.523085492154802
38,18.985274999051487
39,-12.329763056336219
40,21.089825303261247
41,19.092906644001232
42,21.523085492154802
43,18.985274999051487
44,-12.329763056336219
45,21.17780310936353
46,19.09032244044642
47,21.523085492154802
48,18.97780000310887
49,-22.415529859866083
50,21.73709285613937
51,21.737092854756142
52,21.523085492154802
53,-1.6784064993391468e-7
54,21.73709285950373
55,21.737092860039834
56,21.523085492154802
57,6.504007510343968e-8
58,21.523658433256553
59,18.0
60,21.523085492154802
61,-0.0005554535461291116
62,21.08982529874296
63,19.092906643769975
64,21.523085486716514
65,18.985274999051487
66,-12.329763029908584
67,21.08982529874296
68,19.092906643769975
69,21.523085486716514
70,18.985274999051487
71,-12.329763029908584
72,21.177803104657766
73,19.090322440205377
74,21.523085486716514
75,18.97780000310887
76,-22.415529811999956
77,21.737092853730804
78,21.737092853222524
79,21.523085486716514
80,-6.167927613098811e-8
81,21.737092857095153
82,21.737092858506195
83,21.523085486716514
84,1.71199896148444e-7
85,21.52365842781272
86,18.0
87,21.523085486716514
88,-0.0005554535452709708
89,21.089825306068096
90,19.092906644144904
91,21.523085495532985
92,18.985274999051487
93,-12.329763072753018
94,21.089825306068096
95,19.092906644144904
96,21.523085495532985
97,18.985274999051487
98,-12.329763072753018
99,21.17780311228679
100,19.09032244059617
101,21.523085495532985
102,18.97780000310887
103,-22.41552988959979
104,21.737092860039834
105,21.73709285950373
106,21.523085495532985
107,-6.503682292713364e-8
108,21.737092858506195
109,21.737092857095153
110,21.523085495532985
111,-1.7119669315501795e-7
112,21.52365843663825
113,18.0
114,21.523085495532985
115,-0.0005554535466621869
116,21.404019694838
117,0.0
251,-379.18754228650414
252,21.404019701916024
253,0.0
315,-379.18754591005995
316,21.40401969742033
317,0.0
379,-379.1875436163673
380,21.40401970469955
381,0.0
443,-379.1875473159853
542,0.0
545,0.0
548,0.0
551,0.0
446,0.0
2,1, 6,15, 1, 2, 0.00,60.00,SummerDesignDay
7,18.622
8,20.638749919038567
9,18.7272358292621
10,21.0537107449505
11,18.624274999051487
12,-11.801174516031036
13,20.638749919038567
14,18.7272358292621
15,21.0537107449505
16,18.624274999051487
17,-11.801174516031036
18,20.722991579562162
19,18.72446044155769
20,21.0537107449505
21,18.61680000310887
22,-21.458086755999705
23,21.26405228342889
24,21.26405228407642
25,21.0537107449505
26,7.857351391749035e-8
27,21.264052282710523
28,21.264052282949592
29,21.0537107449505
30,2.9012564795038998e-8
31,21.05426408710356
32,18.0
33,21.0537107449505
34,-0.00048146034870597985
35,20.638749922372288
36,18.727235829432722
37,21.053710748963113
38,18.624274999051487
39,-11.801174535530375
40,20.638749922372288
41,18.727235829432722
42,21.053710748963113
43,18.624274999051487
44,-11.801174535530375
45,20.72299158303425
46,18.724460441735534
47,21.053710748963113
48,18.61680000310887
49,-21.45808679131754
50,21.26405228407642
51,21.26405228342889
52,21.053710748963113
53,-7.857040895675738e-8
54,21.26405228565209
55,21.264052285900416
56,21.053710748963113
57,3.012865823492916e-8
58,21.05426409112023
59,18.0
60,21.053710748963113
61,-0.00048146034933915
62,20.63874992026134
63,18.727235829324677
64,21.053710746422322
65,18.624274999051487
66,-11.801174523183295
67,20.63874992026134
68,18.727235829324677
69,21.053710746422322
70,18.624274999051487
71,-11.801174523183295
72,20.7229915808357
73,18.72446044162292
74,21.053710746422322
75,18.61680000310887
76,-21.45808676895424
77,21.264052282949592
78,21.264052282710523
79,21.053710746422322
80,-2.9009378010869113e-8
81,21.26405228452527
82,21.264052285182036
83,21.053710746422322
84,7.968777704370211e-8
85,21.054264088576858
86,18.0
87,21.053710746422322
88,-0.00048146034893822376
89,20.63874992366832
90,18.727235829499058
91,21.053710750522978
92,18.624274999051487
93,-11.801174543110744
94,20.63874992366832
95,18.727235829499058
96,21.053710750522978
97,18.624274999051487
98,-11.801174543110744
99,20.722991584384033
100,18.724460441804677
101,21.053710750522978
102,18.61680000310887
103,-21.45808680504696
104,21.264052285900416
105,21.26405228565209
106,21.053710750522978
107,-3.012555316317389e-8
108,21.264052285182036
109,21.26405228452527
110,21.053710750522978
111,-7.968463922036761e-8
112,21.05426409268171
113,18.0
114,21.053710750522978
115,-0.00048146034958529416
116,20.974675226327182
117,40797.32481775143
251,-68.02393762319548
252,20.97467522871242
253,40797.32369788728
315,-68.02393932365476
316,20.97467522720124
317,40797.324403773
379,-68.02393825055515
380,20.97467522964139
381,40797.32326963203
443,-68.0239399763143
542,11.376124370704408
545,11.37612400576049
548,11.376124261985748
551,11.376123890602654
446,163816.1875045919
2,1, 6,15, 1, 3, 0.00,60.00,SummerDesignDay
7,18.3655
8,20.522357484885386
9,18.47771665225666
10,20.96794728180496
11,18.367774999051488
12,-12.627818254696939
13,20.522357484885386
14,18.47771665225666
15,20.96794728180496
16,18.367774999051488
17,-12.627818254696939
18,20.613055010683723
19,18.47525302276319
20,20.96794728180496
21,18.360300003108872
22,-22.96204107742365
23,21.009680580871787
24,21.009680580858138
25,20.96794728180496
26,-2.4293918075152243e-9
27,21.00968058078684
28,21.00968058078175
29,20.96794728180496
30,-9.02039684266831e-10
31,20.958605934958594
32,18.0
33,20.96794728180496
34,-0.00046638123112647796
35,20.522357484533078
36,18.477716652238925
37,20.967947281361287
38,18.367774999051488
39,-12.627818252602953
40,20.522357484533078
41,18.477716652238925
42,20.967947281361287
43,18.367774999051488
44,-12.627818252602953
45,20.613055010308013
46,18.475253022744635
47,20.967947281361287
48,18.360300003108872
49,-22.962041073537502
50,21.009680580858138
51,21.009680580871787
52,20.967947281361287
53,2.4324968480454734e-9
54,21.00968058104445
55,21.009680581039298
56,20.967947281361287
57,-9.187743907693169e-10
58,20.958605934806382
59,18.0
60,20.967947281361287
61,-0.0004663812311024834
62,20.522357484753982
63,18.477716652250045
64,20.967947281639592
65,18.367774999051488
66,-12.627818253916066
67,20.522357484753982
68,18.477716652250045
69,20.967947281639592
70,18.367774999051488
71,-12.627818253916066
72,20.61305501054363
73,18.47525302275627
74,20.967947281639592
75,18.360300003108872
76,-22.962041075974916
77,21.00968058078175
78,21.00968058078684
79,20.967947281639592
80,9.051120616887509e-10
81,21.009680580968073
82,21.009680580954342
83,20.967947281639592
84,-2.4484798598345403e-9
85,20.958605934900476
86,18.0
87,20.967947281639592
88,-0.00046638123111731634
89,20.52235748440091
90,18.47771665223227
91,20.967947281194594
92,18.367774999051488
93,-12.627818251817061
94,20.52235748440091
95,18.47771665223227
96,20.967947281194594
97,18.367774999051488
98,-12.627818251817061
99,20.613055010166967
100,18.475253022737675
101,20.967947281194594
102,18.360300003108872
103,-22.962041072077984
104,21.009680581039298
105,21.00968058104445
106,20.967947281194594
107,9.218631136231892e-10
108,21.009680580954342
109,21.009680580968073
110,20.967947281194594
111,2.451584891691172e-9
112,20.958605934752185
113,18.0
114,20.967947281194594
115,-0.00046638123109394084
116,20.99017889371732
117,182106.8003098759
251,50.6250207419057
252,20.99017889359268
253,182106.8005694668
315,50.62502081476691
316,20.990178893670727
317,182106.8004060913
379,50.62502076891201
380,20.990178893546148
381,182106.80066813406
443,50.62502084245875
542,50.76485633962606
545,50.76485619904207
548,50.76485639744838
551,50.764856247354196
446,731013.9306604945
2,1, 6,15, 1, 4, 0.00,60.00,SummerDesignDay
7,18.1375
8,20.51125996959319
9,18.26071659659481
10,20.999399169298734
11,18.139774999051486
12,-13.898122491914638
13,20.5112599695432
14,18.26071659624224
15,20.999399169298734
16,18.139774999051486
17,-13.89812249379724
18,20.610307795954075
19,18.25871922611932
20,20.999399169298734
21,18.13230000310887
22,-25.25585338279079
23,21.00028522141954
24,21.000285221419574
25,20.999399169298734
26,6.684075602031436e-12
27,21.00028522141699
28,21.000285221417005
29,20.999399169298734
30,3.497291432147387e-12
31,20.995489513948627
32,18.0
33,20.999399169298734
34,-0.00047219539136136
35,20.511259969532603
36,18.260716596241828
37,20.999399169289532
38,18.139774999051486
39,-13.898122493734924
40,20.51125996953196
41,18.2607165962373
42,20.999399169289532
43,18.139774999051486
44,-13.898122493759097
45,20.61030779594416
46,18.258719226118895
47,20.999399169289532
48,18.13230000310887
49,-25.25585338268984
50,21.000285221419574
51,21.00028522141954
52,20.999399169289532
53,-3.579003738339581e-12
54,21.00028522142516
55,21.00028522142517
56,20.999399169289532
57,3.2848392517333125e-12
58,20.995489513901042
59,18.0
60,20.999399169289532
61,-0.00047219539135385884
62,20.511259969601188
63,18.26071659667895
64,20.999399169295298
65,18.139774999051486
66,-13.898122491441276
67,20.51125996961499
68,18.260716596776287
69,20.999399169295298
70,18.139774999051486
71,-13.898122490921539
72,20.61030779595037
73,18.25871922611916
74,20.999399169295298
75,18.13230000310887
76,-25.25585338275309
77,21.000285221417005
78,21.00028522141699
79,20.999399169295298
80,-3.2685020055073233e-13
81,21.000285221422587
82,21.00028522142262
83,20.999399169295298
84,6.5043085392506306e-12
85,20.995489513930803
86,18.0
87,20.999399169295298
88,-0.0004721953913585503
89,20.51125996959059
90,18.260716596678535
91,20.9993991692861
92,18.139774999051486
93,-13.898122491378953
94,20.511259969528002
95,18.260716596237145
96,20.9993991692861
97,18.139774999051486
98,-13.898122493735816
99,20.61030779594046
100,18.25871922611874
101,20.9993991692861
102,18.13230000310887
103,-25.255853382652205
104,21.00028522142517
105,21.00028522142516
106,20.9993991692861
107,-2.9416459502648595e-13
108,21.00028522142262
109,21.000285221422587
110,20.9993991692861
111,-3.464606206093901e-12
112,20.995489513883363
113,18.0
114,20.9993991692861
115,-0.00047219539135107233
116,20.99971288024772
117,190352.92798115758
251,52.87637671608627
252,20.99971288024359
253,190352.92799098825
315,52.87637671882612
316,20.99971288024618
317,190352.92797397324
379,52.87637671409402
380,20.999712880242047
381,190352.92798641918
443,52.87637671756033
542,53.002930469483246
545,53.00293027887639
548,53.00293049530751
551,53.00293029619985
446,763242.1975435212
2,1, 6,15, 1, 5, 0.00,60.00,SummerDesignDay
7,17.957
8,20.480447416379295
9,18.08782449813353
10,20.999967645770774
11,17.959274999051487
12,-14.774650563930942
13,20.480447291503577
14,18.087823692586124
15,20.999967645770774
16,17.959274999051487
17,-14.774654781889124
18,20.586064419856985
19,18.08615508347846
20,20.999967645770774
21,17.951800003108872
22,-26.847225170117767
23,21.000016239317546
24,21.000016239317546
25,20.999967645770774
26,1.8793855394735968e-12
27,21.000016239317446
28,21.000016239317443
29,20.999967645770774
30,1.3073986439629797e-12
31,20.999276727621197
32,18.0
33,20.999967645770774
34,-0.00047279239056097655
35,20.48044729150312
36,18.08782369258611
37,20.999967645770404
38,17.959274999051487
39,-14.774654781886435
40,20.480447289776308
41,18.087823681487116
42,20.999967645770404
43,17.959274999051487
44,-14.774654839959712
45,20.58606441985657
46,18.08615508347844
47,20.999967645770404
48,17.951800003108872
49,-26.847225170113507
50,21.000016239317546
51,21.000016239317546
52,20.999967645770404
53,1.176658793458022e-12
54,21.000016239317777
55,21.00001623931778
56,20.999967645770404
57,1.4381385114085963e-12
58,20.999276727613644
59,18.0
60,20.999967645770404
61,-0.000472792390559786
62,20.480447414622503
63,18.087824478966272
64,20.999967645770635
65,17.959274999051487
66,-14.774650673939298
67,20.480447503061008
68,18.087825053191207
69,20.999967645770635
70,17.959274999051487
71,-14.774647662824343
72,20.58606441985683
73,18.086155083478452
74,20.999967645770635
75,17.951800003108872
76,-26.847225170116175
77,21.000016239317443
78,21.000016239317446
79,20.999967645770635
80,1.7649881495294516e-12
81,21.000016239317677
82,21.000016239317677
83,20.999967645770635
84,1.6179058079704954e-12
85,20.999276727618362
86,18.0
87,20.999967645770635
88,-0.0004727923905605301
89,20.48044741462205
90,18.087824478966255
91,20.999967645770266
92,17.959274999051487
93,-14.7746506739366
94,20.480447289776137
95,18.087823681487112
96,20.999967645770266
97,17.959274999051487
98,-14.774654839958712
99,20.586064419856413
100,18.086155083478435
101,20.999967645770266
102,17.951800003108872
103,-26.847225170111933
104,21.00001623931778
105,21.000016239317777
106,20.999967645770266
107,1.6179058215230226e-12
108,21.000016239317677
109,21.000016239317677
110,20.999967645770266
111,1.438138501244201e-12
112,20.99927672761083
113,18.0
114,20.999967645770266
115,-0.00047279239055934277
116,20.999983749289342
117,202212.84054844262
251,56.17026438571884
252,20.99998374928917
253,202212.85344682587
315,56.17026796860455
316,20.99998374928927
317,202212.81917469838
379,56.170258448565846
380,20.999983749289107
381,202212.84090398508
443,56.170264484481095
542,56.28590340393618
545,56.28590681716959
548,56.28589748055081
551,56.28590334319493
446,810516.9997614655
2,1, 6,15, 1, 6, 0.00,60.00,SummerDesignDay
7,17.994999999999997
8,20.482589667531307
9,18.124045392855948
10,20.999997641091632
11,17.997274999051488
12,-14.56135616562069
13,20.482589108305348
14,18.124041965189537
15,20.999997641091632
16,17.997274999051488
17,-14.56137390495084
18,20.588533384829507
19,18.122315811319265
20,20.999997641091632
21,17.989800003108872
22,-26.48025355830137
23,21.000001465897338
24,21.000001465897334
25,20.999997641091632
26,1.258371185200544e-12
27,21.00000146589734
28,21.000001465897338
29,20.999997641091632
30,8.824940783646158e-13
31,20.999829720493913
32,18.0
33,20.999997641091632
34,-0.0004728795618512574
35,20.482589108305337
36,18.12404196518954
37,20.99999764109164
38,17.997274999051488
39,-14.56137390495076
40,20.482589103041686
41,18.12404193384692
42,20.99999764109164
43,17.997274999051488
44,-14.561374066129051
45,20.5885333848295
46,18.122315811319265
47,20.99999764109164
48,17.989800003108872
49,-26.480253558301314
50,21.000001465897334
51,21.000001465897338
52,20.99999764109164
53,1.8467005681652697e-12
54,21.000001465897352
55,21.000001465897352
56,20.99999764109164
57,1.3237411170175282e-12
58,20.99982972049242
59,18.0
60,20.99999764109164
61,-0.0004728795618510216
62,20.482589351837774
63,18.124043349646247
64,20.9999976410916
65,17.997274999051488
66,-14.561366860565727
67,20.482589734015974
68,18.124045689925346
69,20.9999976410916
70,17.997274999051488
71,-14.561354751093786
72,20.588533384829475
73,18.12231581131926
74,20.9999976410916
75,17.989800003108872
76,-26.480253558301087
77,21.000001465897338
78,21.00000146589734
79,20.9999976410916
80,2.1572077467841037e-12
81,21.00000146589736
82,21.000001465897356
83,20.9999976410916
84,1.0949463547051716e-12
85,20.99982972049333
86,18.0
87,20.9999976410916
88,-0.00047287956185116525
89,20.482589351837767
90,18.12404334964625
91,20.999997641091614
92,17.997274999051488
93,-14.561366860565682
94,20.482589103041658
95,18.12404193384692
96,20.999997641091614
97,17.997274999051488
98,-14.561374066128899
99,20.588533384829475
100,18.12231581131926
101,20.999997641091614
102,17.989800003108872
103,-26.480253558301047
104,21.000001465897352
105,21.000001465897352
106,20.999997641091614
107,1.6832757423285784e-12
108,21.000001465897356
109,21.00000146589736
110,20.999997641091614
111,2.0101253980253674e-12
112,20.99982972049184
113,18.0
114,20.999997641091614
115,-0.0004728795618509301
116,20.99999862463364
117,201182.72049618946
251,55.884090931604305
252,20.999998624633665
253,201182.7780048697
315,55.88410690623823
316,20.999998624633616
317,201182.688912563
379,55.88408215837444
380,20.999998624633644
381,201182.75319451242
443,55.8841000144721
542,55.982406164216954
545,55.98242201458036
548,55.98239739932258
551,55.98241512654116
446,806146.7065367799
2,1, 6,15, 1, 7, 0.00,60.00,SummerDesignDay
7,18.3845
8,20.5489397425938
9,18.49687350600643
10,20.999999943300665
11,18.386774999051486
12,-12.66553052623738
13,20.54893885085329
14,18.496868494992224
15,20.999999943300665
16,18.386774999051486
17,-12.6655559684613
18,20.64155477691927
19,18.49445259948874
20,20.999999943300665
21,18.37930000310887
22,-23.047160406404057
23,21.00000003970334
24,21.000000039703338
25,20.999999943300665
26,1.1112888385461552e-12
27,21.000000039703345
28,21.000000039703348
29,20.999999943300665
30,1.895728019026476e-12
31,20.999955070715572
32,18.0
33,20.999999943300665
34,-0.00047289932149211
35,20.54893885085334
36,18.496868494992228
37,20.99999994330072
38,18.386774999051486
39,-12.665555968461579
40,20.548938843278968
41,18.496868452395237
42,20.99999994330072
43,18.386774999051486
44,-12.665556184792603
45,20.64155477691932
46,18.49445259948874
47,20.99999994330072
48,18.37930000310887
49,-23.04716040640455
50,21.000000039703338
51,21.00000003970334
52,20.99999994330072
53,1.977440433599183e-12
54,21.000000039703334
55,21.000000039703338
56,20.99999994330072
57,2.1572077458179567e-12
58,20.99995507071548
59,18.0
60,20.99999994330072
61,-0.00047289932149209536
62,20.548938997628326
63,18.49686928913263
64,20.999999943300647
65,18.386774999051486
66,-12.665551979520835
67,20.548939742824032
68,18.496873506009628
69,20.999999943300647
70,18.386774999051486
71,-12.665530527549649
72,20.641554776919257
73,18.49445259948874
74,20.999999943300647
75,18.37930000310887
76,-23.04716040640394
77,21.000000039703348
78,21.000000039703345
79,20.999999943300647
80,1.1930012532644459e-12
81,21.00000003970335
82,21.00000003970334
83,20.999999943300647
84,5.393019362460397e-13
85,20.9999550707155
86,18.0
87,20.999999943300647
88,-0.00047289932149209904
89,20.54893899762837
90,18.496869289132636
91,20.999999943300704
92,18.386774999051486
93,-12.665551979521076
94,20.54893884327896
95,18.496868452395233
96,20.999999943300704
97,18.386774999051486
98,-12.665556184792534
99,20.641554776919303
100,18.49445259948874
101,20.999999943300704
102,18.37930000310887
103,-23.047160406404423
104,21.000000039703338
105,21.000000039703334
106,20.999999943300704
107,9.151790435187192e-13
108,21.00000003970334
109,21.00000003970335
110,20.999999943300704
111,2.5330848529318176e-12
112,20.99995507071541
113,18.0
114,20.999999943300704
115,-0.00047289932149208365
116,21.00000004442071
117,175319.66253287432
251,48.69990643756432
252,21.000000044420773
253,175319.75415251323
315,48.69993188746412
316,21.000000044420695
317,175319.64755639835
379,48.6999022774321
380,21.00000004442076
381,175319.739199496
443,48.6999277338482
542,48.77353543595956
545,48.77356080651206
548,48.77353128894368
551,48.773556659750035
446,702339.0630881952
2,1, 6,15, 1, 8, 0.00,60.00,SummerDesignDay
7,19.3915
8,20.720785920122417
9,19.460898808985903
10,21.000000079581536
11,19.393774999051487
12,-7.767123295961271
13,20.720785028085018
14,19.46089384046753
15,21.000000079581536
16,19.393774999051487
17,-7.767148458661937
18,20.77812316975742
19,19.45668354272831
20,21.000000079581536
21,19.38630000310887
22,-14.168124993302047
23,20.99999998494982
24,20.999999984949813