Program Version,EnergyPlus, Version 24.2.0-94a887817b, YMD=2025.11.28 15:51
1,5,Environment Title[],Latitude[deg],Longitude[deg],Time Zone[],Elevation[m]
2,8,Day of Simulation[],Month[],Day of Month[],DST Indicator[1=yes 0=no],Hour[],StartMinute[],EndMinute[],DayType
3,5,Cumulative Day of Simulation[],Month[],Day of Month[],DST Indicator[1=yes 0=no],DayType  ! When Daily Report Variables Requested
4,2,Cumulative Days of Simulation[],Month[]  ! When Monthly Report Variables Requested
5,1,Cumulative Days of Simulation[] ! When Run Period Report Variables Requested
6,1,Calendar Year of Simulation[] ! When Annual Report Variables Requested
7,1,Environment,Site Outdoor Air Drybulb Temperature [C] !Hourly
8,1,EXT SURFACE EAST SOUTH,Surface Inside Face Temperature [C] !Hourly
9,1,EXT SURFACE EAST SOUTH,Surface Outside Face Temperature [C] !Hourly
10,1,EXT SURFACE EAST SOUTH,Surface Inside Face Adjacent Air Temperature [C] !Hourly
11,1,EXT SURFACE EAST SOUTH,Surface Outside Face Outdoor Air Drybulb Temperature [C] !Hourly
12,1,EXT SURFACE EAST SOUTH,Surface Average Face Conduction Heat Transfer Rate [W] !Hourly
13,1,EXT SURFACE SOUTH EAST,Surface Inside Face Temperature [C] !Hourly
14,1,EXT SURFACE SOUTH EAST,Surface Outside Face Temperature [C] !Hourly
15,1,EXT SURFACE SOUTH EAST,Surface Inside Face Adjacent Air Temperature [C] !Hourly
16,1,EXT SURFACE SOUTH EAST,Surface Outside Face Outdoor Air Drybulb Temperature [C] !Hourly
17,1,EXT SURFACE SOUTH EAST,Surface Average Face Conduction Heat Transfer Rate [W] !Hourly
18,1,PZ1Z2,Surface Inside Face Temperature [C] !Hourly
19,1,PZ1Z2,Surface Outside Face Temperature [C] !Hourly
20,1,PZ1Z2,Surface Inside Face Adjacent Air Temperature [C] !Hourly
21,1,PZ1Z2,Surface Average Face Conduction Heat Transfer Rate [W] !Hourly
22,1,PZ1Z3,Surface Inside Face Temperature [C] !Hourly
23,1,PZ1Z3,Surface Outside Face Temperature [C] !Hourly
24,1,PZ1Z3,Surface Inside Face Adjacent Air Temperature [C] !Hourly
25,1,PZ1Z3,Surface Average Face Conduction Heat Transfer Rate [W] !Hourly
26,1,EXT SURFACE FLOOR SE,Surface Inside Face Temperature [C] !Hourly
27,1,EXT SURFACE FLOOR SE,Surface Outside Face Temperature [C] !Hourly
28,1,EXT SURFACE FLOOR SE,Surface Inside Face Adjacent Air Temperature [C] !Hourly
29,1,EXT SURFACE FLOOR SE,Surface Average Face Conduction Heat Transfer Rate [W] !Hourly
30,1,EXT SURFACE ROOF SE,Surface Inside Face Temperature [C] !Hourly
31,1,EXT SURFACE ROOF SE,Surface Outside Face Temperature [C] !Hourly
32,1,EXT SURFACE ROOF SE,Surface Inside Face Adjacent Air Temperature [C] !Hourly
33,1,EXT SURFACE ROOF SE,Surface Outside Face Outdoor Air Drybulb Temperature [C] !Hourly
34,1,EXT SURFACE ROOF SE,Surface Average Face Conduction Heat Transfer Rate [W] !Hourly
35,1,EXT SURFACE SOUTH WEST,Surface Inside Face Temperature [C] !Hourly
36,1,EXT SURFACE SOUTH WEST,Surface Outside Face Temperature [C] !Hourly
37,1,EXT SURFACE SOUTH WEST,Surface Inside Face Adjacent Air Temperature [C] !Hourly
38,1,EXT SURFACE SOUTH WEST,Surface Outside Face Outdoor Air Drybulb Temperature [C] !Hourly
39,1,EXT SURFACE SOUTH WEST,Surface Average Face Conduction Heat Transfer Rate [W] !Hourly
40,1,EXT SURFACE WEST SOUTH,Surface Inside Face Temperature [C] !Hourly
41,1,EXT SURFACE WEST SOUTH,Surface Outside Face Temperature [C] !Hourly
42,1,EXT SURFACE WEST SOUTH,Surface Inside Face Adjacent Air Temperature [C] !Hourly
43,1,EXT SURFACE WEST SOUTH,Surface Outside Face Outdoor Air Drybulb Temperature [C] !Hourly
44,1,EXT SURFACE WEST SOUTH,Surface Average Face Conduction Heat Transfer Rate [W] !Hourly
45,1,PZ2Z1,Surface Inside Face Temperature [C] !Hourly
46,1,PZ2Z1,Surface Outside Face Temperature [C] !Hourly
47,1,PZ2Z1,Surface Inside Face Adjacent Air Temperature [C] !Hourly
48,1,PZ2Z1,Surface Average Face Conduction Heat Transfer Rate [W] !Hourly
49,1,PZ2Z4,Surface Inside Face Temperature [C] !Hourly
50,1,PZ2Z4,Surface Outside Face Temperature [C] !Hourly
51,1,PZ2Z4,Surface Inside Face Adjacent Air Temperature [C] !Hourly
52,1,PZ2Z4,Surface Average Face Conduction Heat Transfer Rate [W] !Hourly
53,1,EXT SURFACE FLOOR SW,Surface Inside Face Temperature [C] !Hourly
54,1,EXT SURFACE FLOOR SW,Surface Outside Face Temperature [C] !Hourly
55,1,EXT SURFACE FLOOR SW,Surface Inside Face Adjacent Air Temperature [C] !Hourly
56,1,EXT SURFACE FLOOR SW,Surface Average Face Conduction Heat Transfer Rate [W] !Hourly
57,1,EXT SURFACE ROOF SW,Surface Inside Face Temperature [C] !Hourly
58,1,EXT SURFACE ROOF SW,Surface Outside Face Temperature [C] !Hourly
59,1,EXT SURFACE ROOF SW,Surface Inside Face Adjacent Air Temperature [C] !Hourly
60,1,EXT SURFACE ROOF SW,Surface Outside Face Outdoor Air Drybulb Temperature [C] !Hourly
61,1,EXT SURFACE ROOF SW,Surface Average Face Conduction Heat Transfer Rate [W] !Hourly
62,1,EXT SURFACE NORTH EAST,Surface Inside Face Temperature [C] !Hourly
63,1,EXT SURFACE NORTH EAST,Surface Outside Face Temperature [C] !Hourly
64,1,EXT SURFACE NORTH EAST,Surface Inside Face Adjacent Air Temperature [C] !Hourly
65,1,EXT SURFACE NORTH EAST,Surface Outside Face Outdoor Air Drybulb Temperature [C] !Hourly
66,1,EXT SURFACE NORTH EAST,Surface Average Face Conduction Heat Transfer Rate [W] !Hourly
67,1,EXT SURFACE EAST NORTH,Surface Inside Face Temperature [C] !Hourly
68,1,EXT SURFACE EAST NORTH,Surface Outside Face Temperature [C] !Hourly
69,1,EXT SURFACE EAST NORTH,Surface Inside Face Adjacent Air Temperature [C] !Hourly
70,1,EXT SURFACE EAST NORTH,Surface Outside Face Outdoor Air Drybulb Temperature [C] !Hourly
71,1,EXT SURFACE EAST NORTH,Surface Average Face Conduction Heat Transfer Rate [W] !Hourly
72,1,PZ3Z1,Surface Inside Face Temperature [C] !Hourly
73,1,PZ3Z1,Surface Outside Face Temperature [C] !Hourly
74,1,PZ3Z1,Surface Inside Face Adjacent Air Temperature [C] !Hourly
75,1,PZ3Z1,Surface Average Face Conduction Heat Transfer Rate [W] !Hourly
76,1,PZ3Z4,Surface Inside Face Temperature [C] !Hourly
77,1,PZ3Z4,Surface Outside Face Temperature [C] !Hourly
78,1,PZ3Z4,Surface Inside Face Adjacent Air Temperature [C] !Hourly
79,1,PZ3Z4,Surface Average Face Conduction Heat Transfer Rate [W] !Hourly
80,1,EXT SURFACE FLOOR NE,Surface Inside Face Temperature [C] !Hourly
81,1,EXT SURFACE FLOOR NE,Surface Outside Face Temperature [C] !Hourly
82,1,EXT SURFACE FLOOR NE,Surface Inside Face Adjacent Air Temperature [C] !Hourly
83,1,EXT SURFACE FLOOR NE,Surface Average Face Conduction Heat Transfer Rate [W] !Hourly
84,1,EXT SURFACE ROOF NE,Surface Inside Face Temperature [C] !Hourly
85,1,EXT SURFACE ROOF NE,Surface Outside Face Temperature [C] !Hourly
86,1,EXT SURFACE ROOF NE,Surface Inside Face Adjacent Air Temperature [C] !Hourly
87,1,EXT SURFACE ROOF NE,Surface Outside Face Outdoor Air Drybulb Temperature [C] !Hourly
88,1,EXT SURFACE ROOF NE,Surface Average Face Conduction Heat Transfer Rate [W] !Hourly
89,1,EXT SURFACE NORTH WEST,Surface Inside Face Temperature [C] !Hourly
90,1,EXT SURFACE NORTH WEST,Surface Outside Face Temperature [C] !Hourly
91,1,EXT SURFACE NORTH WEST,Surface Inside Face Adjacent Air Temperature [C] !Hourly
92,1,EXT SURFACE NORTH WEST,Surface Outside Face Outdoor Air Drybulb Temperature [C] !Hourly
93,1,EXT SURFACE NORTH WEST,Surface Average Face Conduction Heat Transfer Rate [W] !Hourly
94,1,EXT SURFACE WEST NORTH,Surface Inside Face Temperature [C] !Hourly
95,1,EXT SURFACE WEST NORTH,Surface Outside Face Temperature [C] !Hourly
96,1,EXT SURFACE WEST NORTH,Surface Inside Face Adjacent Air Temperature [C] !Hourly
97,1,EXT SURFACE WEST NORTH,Surface Outside Face Outdoor Air Drybulb Temperature [C] !Hourly
98,1,EXT SURFACE WEST NORTH,Surface Average Face Conduction Heat Transfer Rate [W] !Hourly
99,1,PZ4Z2,Surface Inside Face Temperature [C] !Hourly
100,1,PZ4Z2,Surface Outside Face Temperature [C] !Hourly
101,1,PZ4Z2,Surface Inside Face Adjacent Air Temperature [C] !Hourly
102,1,PZ4Z2,Surface Average Face Conduction Heat Transfer Rate [W] !Hourly
103,1,PZ4Z3,Surface Inside Face Temperature [C] !Hourly
104,1,PZ4Z3,Surface Outside Face Temperature [C] !Hourly
105,1,PZ4Z3,Surface Inside Face Adjacent Air Temperature [C] !Hourly
106,1,PZ4Z3,Surface Average Face Conduction Heat Transfer Rate [W] !Hourly
107,1,EXT SURFACE FLOOR NW,Surface Inside Face Temperature [C] !Hourly
108,1,EXT SURFACE FLOOR NW,Surface Outside Face Temperature [C] !Hourly
109,1,EXT SURFACE FLOOR NW,Surface Inside Face Adjacent Air Temperature [C] !Hourly
110,1,EXT SURFACE FLOOR NW,Surface Average Face Conduction Heat Transfer Rate [W] !Hourly
111,1,EXT SURFACE ROOF NW,Surface Inside Face Temperature [C] !Hourly
112,1,EXT SURFACE ROOF NW,Surface Outside Face Temperature [C] !Hourly
113,1,EXT SURFACE ROOF NW,Surface Inside Face Adjacent Air Temperature [C] !Hourly
114,1,EXT SURFACE ROOF NW,Surface Outside Face Outdoor Air Drybulb Temperature [C] !Hourly
115,1,EXT SURFACE ROOF NW,Surface Average Face Conduction Heat Transfer Rate [W] !Hourly
116,1,Z1,Zone Air Temperature [C] !Hourly
117,1,Z1,Zone Air System Sensible Heating Energy [J] !Hourly
251,1,Z1,Zone Predicted Sensible Load to Setpoint Heat Transfer Rate [W] !Hourly
252,1,Z2,Zone Air Temperature [C] !Hourly
253,1,Z2,Zone Air System Sensible Heating Energy [J] !Hourly
315,1,Z2,Zone Predicted Sensible Load to Setpoint Heat Transfer Rate [W] !Hourly
316,1,Z3,Zone Air Temperature [C] !Hourly
317,1,Z3,Zone Air System Sensible Heating Energy [J] !Hourly
379,1,Z3,Zone Predicted Sensible Load to Setpoint Heat Transfer Rate [W] !Hourly
380,1,Z4,Zone Air Temperature [C] !Hourly
381,1,Z4,Zone Air System Sensible Heating Energy [J] !Hourly
443,1,Z4,Zone Predicted Sensible Load to Setpoint Heat Transfer Rate [W] !Hourly
542,1,Z1 PURCHASED AIR,Zone Ideal Loads Zone Total Heating Rate [W] !Hourly
545,1,Z2 PURCHASED AIR,Zone Ideal Loads Zone Total Heating Rate [W] !Hourly
548,1,Z3 PURCHASED AIR,Zone Ideal Loads Zone Total Heating Rate [W] !Hourly
551,1,Z4 PURCHASED AIR,Zone Ideal Loads Zone Total Heating Rate [W] !Hourly
446,1,DistrictHeatingWater:Facility [J] !Hourly
End of Data Dictionary
1,SUMMER DESIGN DAY IN SALFORD ENERGY HOUSE 1.0 (01-01:31-12) JUN,  53.35,  -2.28,   0.00,  69.00
2,1, 6,15, 1, 1, 0.00,60.00,SummerDesignDay
7,18.983
8,30.593120467631135
9,21.997519908475873
10,33.66800229785319
11,18.985274999051487
12,-53.072274538532156
13,30.593120467631135
14,21.99751990847588
15,33.66800229785319
16,18.985274999051487
17,-53.072274538532156
18,35.244280102149816
19,35.244280075432265
20,33.66800229785319
21,-0.000003890586164678744
22,35.24428013772222
23,35.24428013071325
24,33.66800229785319
25,-0.000001020789332548122
26,33.67890611982918
27,18.0
28,33.66800229785319
29,-0.0024715517036183925
30,35.943671783860815
31,14.476652094723367
32,33.66800229785319
33,18.97780000310887
34,-260.65743241794735
35,30.59312037455209
36,21.997519889167346
37,33.66800218373078
38,18.985274999051487
39,-53.07227408326142
40,30.59312037455209
41,21.997519889167346
42,33.66800218373078
43,18.985274999051487
44,-53.07227408326142
45,35.244280075432265
46,35.244280102149816
47,33.66800218373078
48,0.000003890582712329227
49,35.24428001459155
50,35.24428000758373
51,33.66800218373078
52,-0.0000010206211928792674
53,33.67890600561324
54,18.0
55,33.66800218373078
56,-0.002471551685613909
57,35.94367160858487
58,14.476652060775287
59,33.66800218373078
60,18.97780000310887
61,-260.65743447675175
62,30.59312044447648
63,21.997519903647998
64,33.66800226965406
65,18.985274999051487
66,-53.072274425401446
67,30.593120444476487
68,21.997519903647998
69,33.66800226965406
70,18.985274999051487
71,-53.072274425401474
72,35.24428013071325
73,35.24428013772222
74,33.66800226965406
75,0.0000010207859046651446
76,35.24428006987254
77,35.24428004315615
78,33.66800226965406
79,-0.00000389041709354665
80,33.678906091619275
81,18.0
82,33.66800226965406
83,-0.0024715516991715104
84,35.94367173682678
85,14.476652073372394
86,33.66800226965406
87,18.97780000310887
88,-260.6574323634552
89,30.593120351400774
90,21.997519884340168
91,33.668002155535675
92,18.985274999051487
93,-53.07227397014698
94,30.593120351400774
95,21.997519884340168
96,33.668002155535675
97,18.985274999051487
98,-53.07227397014698
99,35.24428000758373
100,35.24428001459155
101,33.668002155535675
102,0.0000010206176138949363
103,35.24428004315615
104,35.24428006987254
105,33.668002155535675
106,0.0000038904135308548415
107,33.67890597740735
108,18.0
109,33.668002155535675
110,-0.00247155168116766
111,35.9436715615611
112,14.476652039426089
113,33.668002155535675
114,18.97780000310887
115,-260.6574344220013
116,33.507412469757
117,0.0
251,-4858.14459474626
252,33.507412362365045
253,0.0
315,-4858.144544145623
316,33.50741244244875
317,0.0
379,-4858.144583298035
380,33.507412335060806
381,0.0
443,-4858.144532699031
542,0.0
545,0.0
548,0.0
551,0.0
446,0.0
2,1, 6,15, 1, 2, 0.00,60.00,SummerDesignDay
7,18.622
8,29.959978508889982
9,21.584399517850002
10,32.98087214022435
11,18.624274999051487
12,-51.711632000521355
13,29.95997850888998
14,21.584399517850002
15,32.98087214022435
16,18.624274999051487
17,-51.71163200052135
18,34.461278713791415
19,34.461278692605966
20,32.98087214022435
21,-0.0000030850886411082357
22,34.4612787413547
23,34.461278735287316
24,32.98087214022435
25,-8.83644212690271e-7
26,32.991186921217306
27,18.0
28,32.98087214022435
29,-0.0023631427659061765
30,35.10633337299934
31,13.532391877720412
32,32.98087214022435
33,18.61680000310887
34,-231.30831151681616
35,29.959978435256573
36,21.5843995024803
37,32.980872049970536
38,18.624274999051487
39,-51.71163164093472
40,29.959978435256573
41,21.5843995024803
42,32.980872049970536
43,18.624274999051487
44,-51.71163164093472
45,34.461278692605966
46,34.461278713791415
47,32.980872049970536
48,0.000003085085237775065
49,34.461278642942126
50,34.46127863687548
51,32.980872049970536
52,-8.835377128812993e-7
53,32.99118683093271
54,18.0
55,32.980872049970536
56,-0.0023631427516741218
57,35.106333232225424
58,13.532391844475915
59,32.980872049970536
60,18.61680000310887
61,-231.30831284138253
62,29.959978488643838
63,21.58439951360815
64,32.98087211552894
65,18.624274999051487
66,-51.71163190172988
67,29.959978488643838
68,21.58439951360815
69,32.98087211552894
70,18.624274999051487
71,-51.71163190172988
72,34.461278735287316
73,34.4612787413547
74,32.98087211552894
75,8.836407603962648e-7
76,34.461278685623505
77,34.46127866443875
78,32.98087211552894
79,-0.0000030849872687255253
80,32.99118689651705
81,18.0
82,32.98087211552894
83,-0.0023631427620125394
84,35.106333331991706
85,13.532391859652703
86,32.98087211552894
87,18.61680000310887
88,-231.30831148386653
89,29.95997841501314
90,21.584399498239005
91,32.98087202527847
92,18.624274999051487
93,-51.71163154215651
94,29.95997841501314
95,21.584399498239005
96,32.98087202527847
97,18.624274999051487
98,-51.71163154215651
99,34.46127863687548
100,34.461278642942126
101,32.98087202527847
102,8.835343421886854e-7
103,34.46127866443875
104,34.461278685623505
105,32.98087202527847
106,0.0000030849838408009145
107,32.9911868062358
108,18.0
109,32.98087202527847
110,-0.002363142747781012
111,35.10633319122359
112,13.532391826409112
113,32.98087202527847
114,18.61680000310887
115,-231.30831280829352
116,32.7935044554377
117,0.0
251,-4586.09544462773
252,32.793504370050684
253,0.0
315,-4586.095404532869
316,32.79350443158156
317,0.0
379,-4586.095434714466
380,32.79350434619746
381,0.0
443,-4586.0953946207665
542,0.0
545,0.0
548,0.0
551,0.0
446,0.0
2,1, 6,15, 1, 3, 0.00,60.00,SummerDesignDay
7,18.3655
8,29.272185260336094
9,21.23886461014353
10,32.20420409273065
11,18.367774999051484
12,-49.59725209209171
13,29.272185260336094
14,21.238864610143533
15,32.20420409273065
16,18.367774999051484
17,-49.59725209209171
18,33.58899299971768
19,33.58899298263716
20,32.20420409273065
21,-0.000002487370401399458
22,33.58899302158332
23,33.58899301636343
24,32.20420409273065
25,-7.602122991667848e-7
26,32.21462194188568
27,18.0
28,32.20420409273065
29,-0.0022407285819721267
30,34.1808365566581
31,12.798947198794732
32,32.20420409273065
33,18.36030000310887
34,-208.07596682913834
35,29.27218520098824
36,21.23886459764307
37,32.20420401994985
38,18.367774999051484
39,-49.597251802953636
40,29.27218520098824
41,21.23886459764307
42,32.20420401994985
43,18.367774999051484
44,-49.597251802953636
45,33.58899298263716
46,33.58899299971768
47,32.20420401994985
48,0.000002487367320835876
49,33.588992941540894
50,33.588992936321006
51,32.20420401994985
52,-7.602125075556465e-7
53,32.21462186908889
54,18.0
55,32.20420401994985
56,-0.0022407285704967696
57,34.18083644170918
58,12.798947167605354
59,32.20420401994985
60,18.36030000310887
61,-208.07596768003668
62,29.2721852427747
63,21.23886460643433
64,32.204204071271754
65,18.367774999051484
66,-49.597252006585904
67,29.2721852427747
68,21.23886460643433
69,32.204204071271754
70,18.367774999051484
71,-49.597252006585904
72,33.58899301636343
73,33.58899302158332
74,32.204204071271754
75,7.602090837666164e-7
76,33.58899297526718
77,33.58899295818665
78,32.204204071271754
79,-0.0000024873699560612472
80,32.21462192042368
81,18.0
82,32.204204071271754
83,-0.0022407285785889545
84,34.180836521064336
85,12.798947183531721
86,32.204204071271754
87,18.36030000310887
88,-208.07596681167854
89,29.27218518342774
90,21.23886459393404
91,32.204203998492176
92,18.367774999051484
93,-49.59725171745228
94,29.27218518342774
95,21.23886459393404
96,32.204203998492176
97,18.367774999051484
98,-49.59725171745228
99,33.588992936321006
100,33.588992941540894
101,32.204203998492176
102,7.602092676195493e-7
103,33.58899295818665
104,33.58899297526718
105,32.204203998492176
106,0.0000024873667243408004
107,32.2146218476281
108,18.0
109,32.204203998492176
110,-0.002240728567113789
111,34.18083640611475
112,12.79894715234381
113,32.204203998492176
114,18.36030000310887
115,-208.07596766269194
116,32.00043283337506
117,0.0
251,-4270.918472921849
252,32.00043276423118
253,0.0
315,-4270.918440344004
316,32.00043281267211
317,0.0
379,-4270.91846439877
380,32.00043274352885
381,0.0
443,-4270.918431821118
542,0.0
545,0.0
548,0.0
551,0.0
446,0.0
2,1, 6,15, 1, 4, 0.00,60.00,SummerDesignDay
7,18.1375
8,28.544305817648173
9,20.90365926572779
10,31.372065840227506
11,18.139774999051486
12,-47.172382750793446
13,28.54430581764817
14,20.90365926572779
15,31.372065840227506
16,18.139774999051486
17,-47.172382750793425
18,32.664775384051225
19,32.66477537009518
20,31.372065840227506
21,-0.000002032398786017131
22,32.664775401735184
23,32.664775397259646
24,31.372065840227506
25,-6.518037850011815e-7
26,31.38253641903975
27,18.0
28,31.372065840227506
29,-0.0021095623911786794
30,33.20651630118598
31,12.208657381183485
32,31.372065840227506
33,18.13230000310887
34,-190.83443474981948
35,28.544305769097072
36,20.903659255393556
37,31.372065780628304
38,18.139774999051486
39,-47.172382514915824
40,28.544305769877024
41,20.90365925836289
42,31.372065780628304
43,18.139774999051486
44,-47.172382501293754
45,32.66477537009518
46,32.664775384051225
47,31.372065780628304
48,0.000002032395868822867
49,32.6647753357249
50,32.664775331248975
51,31.372065780628304
52,-6.518617762796275e-7
53,31.38253635943109
54,18.0
55,31.372065780628304
56,-0.0021095623817822405
57,33.20651620607798
58,12.208657352738653
59,31.372065780628304
60,18.13230000310887
61,-190.83443529812644
62,28.544305803113588
63,20.903659264900767
64,31.372065821658545
65,18.139774999051486
66,-47.1723826660937
67,28.54430580248111
68,20.90365926249288
69,31.372065821658545
70,18.139774999051486
71,-47.17238267714009
72,32.664775397259646
73,32.664775401735184
74,31.372065821658545
75,6.518006390732189e-7
76,32.66477536288938
77,32.66477534893295
78,31.372065821658545
79,-0.00000203245468136104
80,31.382536400468656
81,18.0
82,31.372065821658545
83,-0.002109562388251216
84,33.2065162703668
85,12.208657368277393
86,31.372065821658545
87,18.13230000310887
88,-190.83443474265187
89,28.544305754561776
90,20.90365925456637
91,31.372065762058547
92,18.139774999051486
93,-47.17238243021267
94,28.54430575470925
95,20.903659255127813
96,31.372065762058547
97,18.139774999051486
98,-47.172382427637
99,32.664775331248975
100,32.6647753357249
101,31.372065762058547
102,6.518584301784536e-7
103,32.66477534893295
104,32.66477536288938
105,31.372065762058547
106,0.000002032451739714114
107,31.382536340859197
108,18.0
109,31.372065762058547
110,-0.0021095623788546514
111,33.20651617525487
112,12.20865733983503
113,31.372065762058547
114,18.13230000310887
115,-190.83443529122462
116,31.158007884871378
117,0.0
251,-3933.2981926232947
252,31.158007828133606
253,0.0
315,-3933.2981657377823
316,31.158007867028125
317,0.0
379,-3933.2981853349943
380,31.15800781028927
381,0.0
443,-3933.298158448994
542,0.0
545,0.0
548,0.0
551,0.0
446,0.0
2,1, 6,15, 1, 5, 0.00,60.00,SummerDesignDay
7,17.957
8,27.802876829876443
9,20.604939665342926
10,30.508859766007454
11,17.959274999051484
12,-44.438152827901916
13,27.802876829876435
14,20.604939665342926
15,30.508859766007454
16,17.959274999051484
17,-44.438152827901874
18,31.715184396045633
19,31.71518439413072
20,30.508859766007454
21,-2.737415243925234e-7
22,31.715184404118418
23,31.715184406384942
24,30.508859766007454
25,3.3319461922864946e-7
26,30.51935549310328
27,18.0
28,30.508859766007454
29,-0.0019734944619670194
30,32.21094600142734
31,13.06731676552588
32,30.508859766007454
33,17.95180000310887
34,28.697100050381323
35,27.80287692192512
36,20.604939688791347
37,30.508859855491245
38,17.959274999051484
39,-44.43815325459782
40,27.80287849014469
41,20.604946363611234
42,30.508859855491245
43,17.959274999051484
44,-44.4381216176786
45,31.71518439413072
46,31.715184396045633
47,30.508859855491245
48,2.7373845609690584e-7
49,31.715184394056042
50,31.71518439632211
51,30.508859855491245
52,3.331287182217757e-7
53,30.5193555823078
54,18.0
55,30.508859855491245
56,-0.0019734944760288154
57,32.210945932222685
58,13.067316739998393
59,30.508859855491245
60,17.95180000310887
61,28.69709790935235
62,27.802877781276873
63,20.60494346948162
64,30.50885983789882
65,17.959274999051484
66,-44.43813516128263
67,27.802876899971817
68,20.604939682607743
69,30.50885983789882
70,17.959274999051484
71,-44.43815315596816
72,31.715184406384942
73,31.715184404118418
74,30.50885983789882
75,-3.331977325160551e-7
76,31.715184406310257
77,31.715184404394897
78,30.50885983789882
79,-2.73806305989277e-7
80,30.51935556482659
81,18.0
82,30.50885983789882
83,-0.0019734944732731565
84,32.21094598141283
85,13.067316754560576
86,30.50885983789882
87,17.95180000310887
88,28.697098926179592
89,27.802877873324288
90,20.604943492929742
91,30.508859927381117
92,17.959274999051484
93,-44.43813558797257
94,27.80287856023881
95,20.60494638087576
96,30.508859927381117
97,17.959274999051484
98,-44.43812194573888
99,31.71518439632211
100,31.715184394056042
101,30.508859927381117
102,-3.3313190497819e-7
103,31.715184404394897
104,31.715184406310257
105,30.508859927381117
106,2.738031396054552e-7
107,30.519355654029617
108,18.0
109,30.508859927381117
110,-0.001973494487334718
111,32.21094591220401
112,13.067316729037396
113,30.508859927381117
114,17.95180000310887
115,28.697096784791597
116,30.291599022019536
117,0.0
251,-3585.786454257289
252,30.291599263513795
253,0.0
315,-3585.786391550872
316,30.29159917770255
317,0.0
379,-3585.786422233318
380,30.29159941919528
381,0.0
443,-3585.786359526236
542,0.0
545,0.0
548,0.0
551,0.0
446,0.0
2,1, 6,15, 1, 6, 0.00,60.00,SummerDesignDay
7,17.994999999999997
8,27.11026482264392
9,20.494994126051267
10,29.64838224608244
11,17.997274999051488
12,-40.838316571734204
13,27.11026482264392
14,20.494994126051267
15,29.64838224608244
16,17.997274999051488
17,-40.83831657173422
18,30.766906913917552
19,30.76690697310929
20,29.64838224608244
21,0.0000086357308324847
22,30.76690685700534
23,30.766906885922207
24,29.64838224608244
25,0.000004216744675045181
26,29.658870745979456
27,18.0
28,29.64838224608244
29,-0.001837851546164249
30,31.21674620362462
31,20.081638939439458
32,29.64838224608244
33,17.989800003108872
34,571.4611473182173
35,27.1102656061634
36,20.494994306213357
37,29.64838315337853
38,17.997274999051488
39,-40.83832030413727
40,27.110269583388945
41,20.49501192178789
42,29.64838315337853
43,17.997274999051488
44,-40.83823601209203
45,30.76690697310929
46,30.766906913917552
47,29.64838315337853
48,-0.000008635733892592423
49,30.766907139502614
50,30.766907168418946
51,29.64838315337853
52,0.000004216667138179364
53,29.658871652492607
54,18.0
55,29.64838315337853
56,-0.0018378516890628738
57,31.21674624631807
58,20.081638917264083
59,29.64838315337853
60,17.989800003108872
61,571.4611365066121
62,27.110266552900896
63,20.495000437754328
64,29.648382669175877
65,17.997274999051488
66,-40.838288286977146
67,27.110265181027074
68,20.494994207142177
69,29.648382669175877
70,17.997274999051488
71,-40.83831828594697
72,30.766906885922207
73,30.76690685700534
74,29.648382669175877
75,-0.0000042167477473931125
76,30.766907052315517
77,30.766907111506725
78,29.648382669175877
79,0.000008635654063671172
80,29.658871168831524
81,18.0
82,29.648382669175877
83,-0.0018378516128207327
84,31.216746235687864
85,20.081638930283262
86,29.648382669175877
87,17.989800003108872
88,571.4611425662014
89,27.110267336419028
90,20.495000617916006
91,29.64838357647039
92,17.997274999051488
93,-40.838292019374435
94,27.11026994177073
95,20.49501200287834
96,29.64838357647039
97,17.997274999051488
98,-40.83823772629916
99,30.766907168418946
100,30.766907139502614
101,29.64838357647039
102,-0.00000421667005931492
103,30.766907111506725
104,30.766907052315517
105,29.64838357647039
106,-0.000008635656988970064
107,29.6588720753431
108,18.0
109,29.64838357647039
110,-0.0018378517557191096
111,31.216746278376185
112,20.08163890811384
113,29.64838357647039
114,17.989800003108872
115,571.4611317540778
116,29.43921687686961
117,0.0
251,-3236.0776931677265
252,29.43921800813196
253,0.0
315,-3236.077550472311
316,29.43921734714076
317,0.0
379,-3236.0776429327148
380,29.43921847840145
381,0.0
443,-3236.07750023646
542,0.0
545,0.0
548,0.0
551,0.0
446,0.0
2,1, 6,15, 1, 7, 0.00,60.00,SummerDesignDay
7,18.3845
8,26.52893394761289
9,20.682648212587047
10,28.838037494732774
11,18.386774999051486
12,-36.08795958877104
13,26.52893394761289
14,20.682648212587047
15,28.838037494732774
16,18.386774999051486
17,-36.08795958877104
18,29.860187334885214
19,29.860187459502207
20,28.838037494732774
21,0.00001816378288629905
22,29.86018716429477
23,29.8601872000985
24,28.838037494732774
25,0.000005214814863485628
26,28.84846501008211
27,18.0
28,28.838037494732774
29,-0.001710102858732155
30,30.26070048654345
31,30.88875128142391
32,28.838037494732774
33,18.37930000310887
34,861.1864390247433
35,26.528935374601843
36,20.6826485410761
37,28.838039208276815
38,18.386774999051486
39,-36.08796637650933
40,26.5289407673253
41,20.682672177298862
42,28.838039208276815
43,18.386774999051486
44,-36.087853692818264
45,29.860187459502207
46,29.860187334885214
47,28.838039208276815
48,-0.00001816378588923029
49,29.860187768741906
50,29.8601878045448
51,28.838039208276815
52,0.000005214692499116991
53,28.848466722791557
54,18.0
55,28.838039208276815
56,-0.0017101031287159103
57,30.260700713336256
58,30.888751265814292
59,28.838039208276815
60,18.37930000310887
61,861.18642245929
62,26.528935061855144
63,20.68265175491814
64,28.83803795751633
65,18.386774999051486
66,-36.08794463171701
67,26.528934319860678
68,20.682648295716927
69,28.83803795751633
70,18.386774999051486
71,-36.087961373019695
72,29.8601872000985
73,29.86018716429477
74,28.83803795751633
75,-0.000005214817854121145
76,29.860187509338193
77,29.86018763395434
78,28.83803795751633
79,0.000018163659831482715
80,28.848465472993453
81,18.0
82,28.83803795751633
83,-0.0017101029317034015
84,30.26070056762932
85,30.88875127519938
86,28.83803795751633
87,18.37930000310887
88,861.1864352921716
89,26.52893648884215
90,20.682652083406612
91,28.838039671058105
92,18.386774999051486
93,-36.08795141944684
94,26.52894113957109
95,20.682672260428056
96,28.838039671058105
97,18.386774999051486
98,-36.087855477058824
99,29.8601878045448
100,29.860187768741906
101,28.838039671058105
102,-0.000005214695306010597
103,29.86018763395434
104,29.860187509338193
105,28.838039671058105
106,-0.00001816366280180115
107,28.848467185700642
108,18.0
109,28.838039671058105
110,-0.0017101032016868007
111,30.260700794413836
112,30.888751259595296
113,28.838039671058105
114,18.37930000310887
115,861.186418725986
116,28.64930307524576
117,0.0
251,-2896.068565375884
252,28.64930494781212
253,0.0
315,-2896.0684559854276
316,28.649303492892038
317,0.0
379,-2896.0685683348556
380,28.649305365455852
381,0.0
443,-2896.068458943153
542,0.0
545,0.0
548,0.0
551,0.0
446,0.0
2,1, 6,15, 1, 8, 0.00,60.00,SummerDesignDay
7,19.3915
8,26.174987380066785
9,21.407542252566646
10,28.143852856744225
11,19.393774999051487
12,-29.422305663882966
13,26.17498781650247
14,21.40754392642973
15,28.143852856744225
16,19.393774999051487
17,-29.422297990774368
18,29.068739449088476
19,29.068739620341876
20,28.143852856744225
21,0.000024953137101463296
22,29.068739152050572
23,29.068739171200175
24,28.143852856744225
25,0.000002784990875415172
26,28.15484195124536
27,18.0
28,28.143852856744225
29,-0.0016007632632504998
30,29.421762653193305
31,41.81868999960054
32,28.143852856744225
33,19.38630000310887
34,970.1720358631874
35,26.1749896477619
36,21.407544361159708
37,28.14385509911522
38,19.393774999051487
39,-29.422306616241624
40,26.174995288326777
41,21.40756843960665
42,28.14385509911522
43,19.393774999051487
44,-29.422192799843042
45,29.068739620341876
46,29.068739449088476
47,28.14385509911522
48,-0.000024953139985933737
49,29.0687399935212
50,29.068740012669664
51,28.14385509911522
52,0.000002784824537527264
53,28.15484419244852
54,18.0
55,28.14385509911522
56,-0.0016007636165436094
57,29.421763067034775
58,41.8186899892983
59,28.14385509911522
60,19.38630000310887
61,970.1720178260878
62,26.174987521068857
63,21.40754237679119