Program Version,EnergyPlus, Version 24.2.0-94a887817b, YMD=2025.12.10 13:32
1,5,Environment Title[],Latitude[deg],Longitude[deg],Time Zone[],Elevation[m]
2,8,Day of Simulation[],Month[],Day of Month[],DST Indicator[1=yes 0=no],Hour[],StartMinute[],EndMinute[],DayType
3,5,Cumulative Day of Simulation[],Month[],Day of Month[],DST Indicator[1=yes 0=no],DayType  ! When Daily Report Variables Requested
4,2,Cumulative Days of Simulation[],Month[]  ! When Monthly Report Variables Requested
5,1,Cumulative Days of Simulation[] ! When Run Period Report Variables Requested
6,1,Calendar Year of Simulation[] ! When Annual Report Variables Requested
7,1,Environment,Site Outdoor Air Drybulb Temperature [C] !Hourly
8,1,Z1,Zone Air Temperature [C] !Hourly
143,1,Z2,Zone Air Temperature [C] !Hourly
206,1,Z3,Zone Air Temperature [C] !Hourly
269,1,Z4,Zone Air Temperature [C] !Hourly
332,1,HOT WATER LOOP,Plant Supply Side Outlet Temperature [C] !Hourly
395,1,Z1 RADIATOR,Baseboard Total Heating Rate [W] !Hourly
396,1,Z1 RADIATOR,Baseboard Hot Water Mass Flow Rate [kg/s] !Hourly
399,1,Z2 RADIATOR,Baseboard Total Heating Rate [W] !Hourly
400,1,Z2 RADIATOR,Baseboard Hot Water Mass Flow Rate [kg/s] !Hourly
403,1,Z3 RADIATOR,Baseboard Total Heating Rate [W] !Hourly
404,1,Z3 RADIATOR,Baseboard Hot Water Mass Flow Rate [kg/s] !Hourly
407,1,Z4 RADIATOR,Baseboard Total Heating Rate [W] !Hourly
408,1,Z4 RADIATOR,Baseboard Hot Water Mass Flow Rate [kg/s] !Hourly
409,1,HEAT PUMP,Heat Pump Load Side Heat Transfer Rate [W] !Hourly
423,1,HEAT PUMP,Heat Pump Load Side Inlet Temperature [C] !Hourly
424,1,HEAT PUMP,Heat Pump Electricity Rate [W] !Hourly
499,1,SUPPLY PUMP,Pump Electricity Rate [W] !Hourly
500,1,SUPPLY PUMP,Pump Fluid Heat Gain Rate [W] !Hourly
501,1,SUPPLY PUMP,Pump Mass Flow Rate [kg/s] !Hourly
529,1,Baseboard Total Heating Rate All Zones,PythonPlugin:OutputVariable [W] !Hourly
End of Data Dictionary
1,WINTER DESIGN DAY IN (MID) UK,  53.35,  -2.28,   0.00,  69.00
2,1, 1,15, 0, 1, 0.00,60.00,WinterDesignDay
7,-3.0
8,20.99947091146003
143,20.99947091146003
206,20.99947091146003
269,20.99947091146003
332,49.57
395,444.34010928783283
396,0.028689468750000002
399,444.34010928783283
400,0.028689468750000002
403,444.34010928783283
404,0.028689468750000002
407,444.34010928783283
408,0.028689468750000002
409,1775.114028730738
423,46.30319025036804
424,740.3827881586188
499,1.97023918648813
500,1.97023918648813
501,0.12998674
529,1777.3604371513313
2,1, 1,15, 0, 2, 0.00,60.00,WinterDesignDay
7,-3.0
8,20.99943174000706
143,20.99943174000706
206,20.99943174000706
269,20.99943174000706
332,49.57
395,444.3431939681632
396,0.028689468750000002
399,444.3431939681632
400,0.028689468750000002
403,444.3431939681632
404,0.028689468750000002
407,444.3431939681632
408,0.028689468750000002
409,1775.1262895721725
423,46.30316768360724
424,740.3879020362738
499,1.970239166719802
500,1.970239166719802
501,0.12998674
529,1777.3727758726527
2,1, 1,15, 0, 3, 0.00,60.00,WinterDesignDay
7,-3.0
8,20.999233329271952
143,20.999233329271952
206,20.999233329271952
269,20.999233329271952
332,49.57
395,444.346200811791
396,0.028689468750000002
399,444.346200811791
400,0.028689468750000002
403,444.346200811791
404,0.028689468750000002
407,444.346200811791
408,0.028689468750000002
409,1775.0538264092816
423,46.30330105958461
424,740.3576783561542
499,1.9702392835562221
500,1.9702392835562221
501,0.12998674
529,1777.384803247164
2,1, 1,15, 0, 4, 0.00,60.00,WinterDesignDay
7,-3.0
8,20.999039925096895
143,20.999039925096895
206,20.999039925096895
269,20.999039925096895
332,49.57
395,444.1842113061957
396,0.028574250000000002
399,444.1842113061957
400,0.028574250000000002
403,444.1842113061957
404,0.028574250000000002
407,444.1842113061957
408,0.028574250000000002
409,1774.568628230297
423,46.30419412973423
424,740.1553069170513
499,1.9702400658779775
500,1.9702400658779775
501,0.12998674
529,1776.7368452247829
2,1, 1,15, 0, 5, 0.00,60.00,WinterDesignDay
7,-3.0
8,20.999481679292963
143,20.999481679292963
206,20.999481679292963
269,20.999481679292963
332,49.57
395,444.3395002914962
396,0.028689468750000002
399,444.3395002914962
400,0.028689468750000002
403,444.3395002914962
404,0.028689468750000002
407,444.3395002914962
408,0.028689468750000002
409,1775.1103242874028
423,46.30319706779541
424,740.3812430713509
499,1.9702391924601494
500,1.9702391924601494
501,0.12998674
529,1777.358001165985
2,1, 1,15, 0, 6, 0.00,60.00,WinterDesignDay
7,-3.0
8,20.999470911460122
143,20.999470911460122
206,20.999470911460122
269,20.999470911460122
332,49.57
395,444.3401092878315
396,0.028689468750000002
399,444.3401092878315
400,0.028689468750000002
403,444.3401092878315
404,0.028689468750000002
407,444.3401092878315
408,0.028689468750000002
409,1775.114028730734
423,46.30319025036805
424,740.3827881586172
499,1.97023918648813
500,1.97023918648813
501,0.12998674
529,1777.360437151326
2,1, 1,15, 0, 7, 0.00,60.00,WinterDesignDay
7,-3.0
8,20.99943174000714
143,20.99943174000714
206,20.99943174000714
269,20.99943174000714
332,49.57
395,444.3431939681617
396,0.028689468750000002
399,444.3431939681617
400,0.028689468750000002
403,444.3431939681617
404,0.028689468750000002
407,444.3431939681617
408,0.028689468750000002
409,1775.1262895721686
423,46.30316768360725
424,740.3879020362721
499,1.970239166719802
500,1.970239166719802
501,0.12998674
529,1777.3727758726468
2,1, 1,15, 0, 8, 0.00,60.00,WinterDesignDay
7,-3.0
8,20.999233329272013
143,20.999233329272013
206,20.999233329272013
269,20.999233329272013
332,49.57
395,444.3462008117897
396,0.028689468750000002
399,444.3462008117897
400,0.028689468750000002
403,444.3462008117897
404,0.028689468750000002
407,444.3462008117897
408,0.028689468750000002
409,1775.0538264092759
423,46.30330105958462
424,740.3576783561518
499,1.9702392835562221
500,1.9702392835562221
501,0.12998674
529,1777.3848032471587
2,1, 1,15, 0, 9, 0.00,60.00,WinterDesignDay
7,-3.0
8,20.99903992509695
143,20.99903992509695
206,20.99903992509695
269,20.99903992509695
332,49.57
395,444.1842113061948
396,0.028574250000000002
399,444.1842113061948
400,0.028574250000000002
403,444.1842113061948
404,0.028574250000000002
407,444.1842113061948
408,0.028574250000000002
409,1774.5686282302922
423,46.30419412973424
424,740.1553069170493
499,1.9702400658779775
500,1.9702400658779775
501,0.12998674
529,1776.7368452247792
2,1, 1,15, 0,10, 0.00,60.00,WinterDesignDay
7,-3.0
8,20.99948167929301
143,20.99948167929301
206,20.99948167929301
269,20.99948167929301
332,49.57
395,444.33950029149537
396,0.028689468750000002
399,444.33950029149537
400,0.028689468750000002
403,444.33950029149537
404,0.028689468750000002
407,444.33950029149537
408,0.028689468750000002
409,1775.1103242873999
423,46.303197067795416
424,740.3812430713497
499,1.9702391924601494
500,1.9702391924601494
501,0.12998674
529,1777.3580011659815
2,1, 1,15, 0,11, 0.00,60.00,WinterDesignDay
7,-3.0
8,20.999470911460165
143,20.999470911460165
206,20.999470911460165
269,20.999470911460165
332,49.57
395,444.3401092878307
396,0.028689468750000002
399,444.3401092878307
400,0.028689468750000002
403,444.3401092878307
404,0.028689468750000002
407,444.3401092878307
408,0.028689468750000002
409,1775.1140287307292
423,46.303190250368054
424,740.3827881586151
499,1.97023918648813
500,1.97023918648813
501,0.12998674
529,1777.360437151323
2,1, 1,15, 0,12, 0.00,60.00,WinterDesignDay
7,-3.0
8,20.999431740007175
143,20.999431740007175
206,20.999431740007175
269,20.999431740007175
332,49.57
395,444.34319396816124
396,0.028689468750000002
399,444.34319396816124
400,0.028689468750000002
403,444.34319396816124
404,0.028689468750000002
407,444.34319396816124
408,0.028689468750000002
409,1775.1262895721657
423,46.303167683607256
424,740.3879020362709
499,1.970239166719802
500,1.970239166719802
501,0.12998674
529,1777.372775872645
2,1, 1,15, 0,13, 0.00,60.00,WinterDesignDay
7,-3.0
8,20.99923332927205
143,20.99923332927205
206,20.99923332927205
269,20.99923332927205
332,49.57
395,444.34620081178946
396,0.028689468750000002
399,444.34620081178946
400,0.028689468750000002
403,444.34620081178946
404,0.028689468750000002
407,444.34620081178946
408,0.028689468750000002
409,1775.0538264092759
423,46.30330105958462
424,740.3576783561518
499,1.9702392835562221
500,1.9702392835562221
501,0.12998674
529,1777.3848032471578
2,1, 1,15, 0,14, 0.00,60.00,WinterDesignDay
7,-3.0
8,20.999039925096994
143,20.999039925096994
206,20.999039925096994
269,20.999039925096994
332,49.57
395,444.18421130619436
396,0.028574250000000002
399,444.18421130619436
400,0.028574250000000002
403,444.18421130619436
404,0.028574250000000002
407,444.18421130619436
408,0.028574250000000002
409,1774.5686282302913
423,46.30419412973424
424,740.155306917049
499,1.9702400658779775
500,1.9702400658779775
501,0.12998674
529,1776.7368452247774
2,1, 1,15, 0,15, 0.00,60.00,WinterDesignDay
7,-3.0
8,20.999481679293044
143,20.999481679293044
206,20.999481679293044
269,20.999481679293044
332,49.57
395,444.33950029149497
396,0.028689468750000002
399,444.33950029149497
400,0.028689468750000002
403,444.33950029149497
404,0.028689468750000002
407,444.33950029149497
408,0.028689468750000002
409,1775.110324287398
423,46.30319706779542
424,740.3812430713488
499,1.9702391924601494
500,1.9702391924601494
501,0.12998674
529,1777.3580011659799
2,1, 1,15, 0,16, 0.00,60.00,WinterDesignDay
7,-3.0
8,20.9994709114602
143,20.9994709114602
206,20.9994709114602
269,20.9994709114602
332,49.57
395,444.3401092878299
396,0.028689468750000002
399,444.3401092878299
400,0.028689468750000002
403,444.3401092878299
404,0.028689468750000002
407,444.3401092878299
408,0.028689468750000002
409,1775.1140287307253
423,46.30319025036806
424,740.3827881586136
499,1.97023918648813
500,1.97023918648813
501,0.12998674
529,1777.3604371513195
2,1, 1,15, 0,17, 0.00,60.00,WinterDesignDay
7,-3.0
8,20.999431740007203
143,20.999431740007203
206,20.999431740007203
269,20.999431740007203
332,49.57
395,444.3431939681604
396,0.028689468750000002
399,444.3431939681604
400,0.028689468750000002
403,444.3431939681604
404,0.028689468750000002
407,444.3431939681604
408,0.028689468750000002
409,1775.1262895721609
423,46.30316768360726
424,740.387902036269
499,1.970239166719802
500,1.970239166719802
501,0.12998674
529,1777.3727758726416
2,1, 1,15, 0,18, 0.00,60.00,WinterDesignDay
7,-3.0
8,20.999233329272073
143,20.999233329272073
206,20.999233329272073
269,20.999233329272073
332,49.57
395,444.3462008117886
396,0.028689468750000002
399,444.3462008117886
400,0.028689468750000002
403,444.3462008117886
404,0.028689468750000002
407,444.3462008117886
408,0.028689468750000002
409,1775.0538264092709
423,46.303301059584626
424,740.3576783561498
499,1.9702392835562221
500,1.9702392835562221
501,0.12998674
529,1777.3848032471544
2,1, 1,15, 0,19, 0.00,60.00,WinterDesignDay
7,-3.0
8,20.999039925097
143,20.999039925097
206,20.999039925097
269,20.999039925097
332,49.57
395,444.1842113061938
396,0.028574250000000002
399,444.1842113061938
400,0.028574250000000002
403,444.1842113061938
404,0.028574250000000002
407,444.1842113061938
408,0.028574250000000002
409,1774.5686282302872
423,46.30419412973425
424,740.1553069170473
499,1.9702400658779775
500,1.9702400658779775
501,0.12998674
529,1776.7368452247752
2,1, 1,15, 0,20, 0.00,60.00,WinterDesignDay
7,-3.0
8,20.99948167929305
143,20.99948167929305
206,20.99948167929305
269,20.99948167929305
332,49.57
395,444.3395002914945
396,0.028689468750000002
399,444.3395002914945
400,0.028689468750000002
403,444.3395002914945
404,0.028689468750000002
407,444.3395002914945
408,0.028689468750000002
409,1775.110324287395
423,46.30319706779543
424,740.3812430713476
499,1.9702391924601494
500,1.9702391924601494
501,0.12998674
529,1777.358001165978
2,1, 1,15, 0,21, 0.00,60.00,WinterDesignDay
7,-3.0
8,20.9994709114602
143,20.9994709114602
206,20.9994709114602
269,20.9994709114602
332,49.57
395,444.3401092878299
396,0.028689468750000002
399,444.3401092878299
400,0.028689468750000002
403,444.3401092878299
404,0.028689468750000002
407,444.3401092878299
408,0.028689468750000002
409,1775.1140287307253
423,46.30319025036806
424,740.3827881586136
499,1.97023918648813
500,1.97023918648813
501,0.12998674
529,1777.3604371513195
2,1, 1,15, 0,22, 0.00,60.00,WinterDesignDay
7,-3.0
8,20.999431740007203
143,20.999431740007203
206,20.999431740007203
269,20.999431740007203
332,49.57
395,444.3431939681604
396,0.028689468750000002
399,444.3431939681604
400,0.028689468750000002
403,444.3431939681604
404,0.028689468750000002
407,444.3431939681604
408,0.028689468750000002
409,1775.1262895721609
423,46.30316768360726
424,740.387902036269
499,1.970239166719802
500,1.970239166719802
501,0.12998674
529,1777.3727758726416
2,1, 1,15, 0,23, 0.00,60.00,WinterDesignDay
7,-3.0
8,20.999233329272073
143,20.999233329272073
206,20.999233329272073
269,20.999233329272073
332,49.57
395,444.3462008117886
396,0.028689468750000002
399,444.3462008117886
400,0.028689468750000002
403,444.3462008117886
404,0.028689468750000002
407,444.3462008117886
408,0.028689468750000002
409,1775.0538264092709
423,46.303301059584626
424,740.3576783561498
499,1.9702392835562221
500,1.9702392835562221
501,0.12998674
529,1777.3848032471544
2,1, 1,15, 0,24, 0.00,60.00,WinterDesignDay
7,-3.0
8,20.999039925097
143,20.999039925097
206,20.999039925097
269,20.999039925097
332,49.57
395,444.1842113061938
396,0.028574250000000002
399,444.1842113061938
400,0.028574250000000002
403,444.1842113061938
404,0.028574250000000002
407,444.1842113061938
408,0.028574250000000002
409,1774.5686282302872
423,46.30419412973425
424,740.1553069170473
499,1.9702400658779775
500,1.9702400658779775
501,0.12998674
529,1776.7368452247752
End of Data
 Number of Records Written=         504
