Program Version,EnergyPlus, Version 24.2.0-94a887817b, YMD=2026.01.14 16:15
1,5,Environment Title[],Latitude[deg],Longitude[deg],Time Zone[],Elevation[m]
2,8,Day of Simulation[],Month[],Day of Month[],DST Indicator[1=yes 0=no],Hour[],StartMinute[],EndMinute[],DayType
3,5,Cumulative Day of Simulation[],Month[],Day of Month[],DST Indicator[1=yes 0=no],DayType  ! When Daily Report Variables Requested
4,2,Cumulative Days of Simulation[],Month[]  ! When Monthly Report Variables Requested
5,1,Cumulative Days of Simulation[] ! When Run Period Report Variables Requested
6,1,Calendar Year of Simulation[] ! When Annual Report Variables Requested
7,1,Environment,Site Outdoor Air Drybulb Temperature [C] !Hourly
8,1,Z1,Zone Operative Temperature [C] !Hourly
9,1,Z2,Zone Operative Temperature [C] !Hourly
10,1,Z3,Zone Operative Temperature [C] !Hourly
11,1,Z4,Zone Operative Temperature [C] !Hourly
12,1,Z1,Zone Air Temperature [C] !Hourly
147,1,Z2,Zone Air Temperature [C] !Hourly
210,1,Z3,Zone Air Temperature [C] !Hourly
273,1,Z4,Zone Air Temperature [C] !Hourly
336,1,HOT WATER LOOP,Plant Supply Side Outlet Temperature [C] !Hourly
399,1,Z1 RADIATOR,Baseboard Total Heating Rate [W] !Hourly
400,1,Z1 RADIATOR,Baseboard Hot Water Mass Flow Rate [kg/s] !Hourly
403,1,Z2 RADIATOR,Baseboard Total Heating Rate [W] !Hourly
404,1,Z2 RADIATOR,Baseboard Hot Water Mass Flow Rate [kg/s] !Hourly
407,1,Z3 RADIATOR,Baseboard Total Heating Rate [W] !Hourly
408,1,Z3 RADIATOR,Baseboard Hot Water Mass Flow Rate [kg/s] !Hourly
411,1,Z4 RADIATOR,Baseboard Total Heating Rate [W] !Hourly
412,1,Z4 RADIATOR,Baseboard Hot Water Mass Flow Rate [kg/s] !Hourly
413,1,HEAT PUMP,Heat Pump Load Side Heat Transfer Rate [W] !Hourly
427,1,HEAT PUMP,Heat Pump Load Side Inlet Temperature [C] !Hourly
428,1,HEAT PUMP,Heat Pump Electricity Rate [W] !Hourly
503,1,SUPPLY PUMP,Pump Electricity Rate [W] !Hourly
504,1,SUPPLY PUMP,Pump Fluid Heat Gain Rate [W] !Hourly
505,1,SUPPLY PUMP,Pump Mass Flow Rate [kg/s] !Hourly
533,1,Baseboard Total Heating Rate All Zones,PythonPlugin:OutputVariable [W] !Hourly
End of Data Dictionary
1,WINTER DESIGN DAY IN (MID) UK,  53.35,  -2.28,   0.00,  69.00
2,1, 1,15, 0, 1, 0.00,60.00,WinterDesignDay
7,-3.0
8,18.80093735501717
9,17.99946197169057
10,17.999461971688874
11,18.800937355017933
12,19.801309462903976
147,18.594161683968547
210,18.594161683966753
273,19.801309462904733
336,50.03
399,471.2581844714157
400,0.029496
403,365.5406506702249
404,0.0050120156249999995
407,365.5406506702492
408,0.0050120156249999995
411,471.258184471403
412,0.029496
413,1671.378221128623
427,46.954194998107006
428,704.126766739505
503,1.9708096267203525
504,1.9708096267203525
505,0.12998674
533,1673.597670283293
2,1, 1,15, 0, 2, 0.00,60.00,WinterDesignDay
7,-3.0
8,18.800937247717194
9,17.999461861049273
10,17.99946186104884
11,18.800937247717734
12,19.801309364148665
147,18.594161580462895
210,18.594161580462277
273,19.801309364149215
336,50.03
399,471.25818603783165
400,0.029496
403,365.54065189479024
404,0.0050120156249999995
407,365.54065189480076
408,0.0050120156249999995
411,471.25818603782216
412,0.029496
413,1671.3782267222318
427,46.954194987813196
428,704.1267690960092
503,1.97080962671133
504,1.97080962671133
505,0.12998674
533,1673.5976758652446
2,1, 1,15, 0, 3, 0.00,60.00,WinterDesignDay
7,-3.0
8,18.800937147585877
9,17.999461757799736
10,17.999461757800354
11,18.80093714758579
12,19.80130927199112
147,18.59416148387229
210,18.59416148387269
273,19.801309271991133
336,50.03
399,471.2581874995983
400,0.029496
403,365.54065303754453
404,0.0050120156249999995
407,365.5406530375426
408,0.0050120156249999995
411,471.25818749959535
412,0.029496
413,1671.3782319421439
427,46.9541949782071
428,704.1267712950803
503,1.9708096267029103
504,1.9708096267029103
505,0.12998674
533,1673.597681074281
2,1, 1,15, 0, 4, 0.00,60.00,WinterDesignDay
7,-3.0
8,18.80093705414435
9,17.999461661448226
10,17.999461661449637
11,18.80093705414341
12,19.80130918599064
147,18.59416139373483
210,18.59416139373601
273,19.801309185989894
336,50.03
399,471.2581888637033
400,0.029496
403,365.54065410395253
404,0.0050120156249999995
407,365.54065410394065
408,0.0050120156249999995
411,471.25818886371235
412,0.029496
413,1671.3782368133236
427,46.95419496924276
428,704.126773347236
503,1.9708096266950532
504,1.9708096266950532
505,0.12998674
533,1673.5976859353088
2,1, 1,15, 0, 5, 0.00,60.00,WinterDesignDay
7,-3.0
8,18.80093696694542
9,17.999461571533942
10,17.999461571535782
11,18.800936966943752
12,19.801309105735672
147,18.594161309619423
210,18.59416130962107
273,19.801309105734223
336,50.03
399,471.25819013667507
400,0.029496
403,365.54065509911425
404,0.0050120156249999995
407,365.5406550990959
408,0.0050120156249999995
411,471.2581901366952
412,0.029496
413,1671.378241359067
427,46.95419496087731
428,704.12677526229
503,1.9708096266877209
504,1.9708096266877209
505,0.12998674
533,1673.5976904715803
2,1, 1,15, 0, 6, 0.00,60.00,WinterDesignDay
7,-3.0
8,18.80093688557202
9,17.99946148762711
10,17.99946148762887
11,18.80093688556999
12,19.801309030842322
147,18.594161231123998
210,18.594161231125646
273,19.801309030840493
336,50.03
399,471.258191324603
400,0.029496
403,365.5406560277874
404,0.0050120156249999995
407,365.54065602776797
408,0.0050120156249999995
411,471.2581913246301
412,0.029496
413,1671.378245601114
427,46.95419495307076
428,704.1267770494013
503,1.9708096266808788
504,1.9708096266808788
505,0.12998674
533,1673.5976947047884
2,1, 1,15, 0, 7, 0.00,60.00,WinterDesignDay
7,-3.0
8,18.80093680963504
9,17.999461409326443
10,17.999461409327992
11,18.800936809632915
12,19.801308960952454
147,18.59416115787317
210,18.59416115787465
273,19.801308960950507
336,50.03
399,471.25819243316766
400,0.029496
403,365.5406568944122
404,0.0050120156249999995
407,365.5406568943946
408,0.0050120156249999995
411,471.25819243319745
412,0.029496
413,1671.3782495597472
427,46.95419494578576
428,704.1267787171145
503,1.9708096266744932
504,1.9708096266744932
505,0.12998674
533,1673.5976986551718
2,1, 1,15, 0, 8, 0.00,60.00,WinterDesignDay
7,-3.0
8,18.800936738771462
9,17.999461336257298
10,17.999461336258847
11,18.80093673876928
12,19.801308895731946
147,18.594161089516483
210,18.59416108951794
273,19.80130889572993
336,50.03
399,471.2581934676697
400,0.029496
403,365.5406577031346
404,0.0050120156249999995
407,365.5406577031178
408,0.0050120156249999995
411,471.25819346770083
412,0.029496
413,1671.3782532538958
427,46.95419493898749
428,704.1267802734044
503,1.9708096266685344
504,1.9708096266685344
505,0.12998674
533,1673.5977023416228
2,1, 1,15, 0, 9, 0.00,60.00,WinterDesignDay
7,-3.0
8,18.800936672642557
9,17.9994612680701
10,17.999461268071677
11,18.800936672640397
12,19.801308834869044
147,18.59416102572689
210,18.594161025728376
273,19.801308834867037
336,50.03
399,471.25819443305386
400,0.029496
403,365.5406584578242
404,0.0050120156249999995
407,365.54065845780684
408,0.0050120156249999995
411,471.25819443308546
412,0.029496
413,1671.3782567012295
427,46.95419493264342
428,704.1267817257146
503,1.970809626662974
504,1.970809626662974
505,0.12998674
533,1673.5977057817704
2,1, 1,15, 0,10, 0.00,60.00,WinterDesignDay
7,-3.0
8,18.800936610932048
9,17.999461204438667
10,17.999461204440003
11,18.800936610929803
12,19.801308778072684
147,18.594160966199247
210,18.594160966200548
273,19.801308778070602
336,50.03
399,471.25819533393627
400,0.029496
403,365.5406591620907
404,0.0050120156249999995
407,365.5406591620747
408,0.0050120156249999995
411,471.2581953339683
412,0.029496
413,1671.3782599182316
427,46.95419492672323
428,704.1267830809899
503,1.9708096266577848
504,1.9708096266577848
505,0.12998674
533,1673.59770899207
2,1, 1,15, 0,11, 0.00,60.00,WinterDesignDay
7,-3.0
8,18.800936553344368
9,17.99946114505868
10,17.999461145059463
11,18.800936553341913
12,19.801308725070875
147,18.594160910648853
210,18.59416091064967
273,19.80130872506861
336,50.03
399,471.25819617462923
400,0.029496
403,365.54065981930296
404,0.0050120156249999995
407,365.54065981929193
408,0.0050120156249999995
411,471.258196174664
412,0.029496
413,1671.3782629203083
427,46.95419492119857
428,704.1267843457199
503,1.9708096266529425
504,1.9708096266529425
505,0.12998674
533,1673.5977119878883
2,1, 1,15, 0,12, 0.00,60.00,WinterDesignDay
7,-3.0
8,18.800936499603942
9,17.999461089645603
10,17.999461089645813
11,18.80093649960138
12,19.801308675609967
147,18.59416085880961
210,18.594160858809897
273,19.801308675607594
336,50.03
399,471.25819695915783
400,0.029496
403,365.54066043260707
404,0.0050120156249999995
407,365.54066043260207
408,0.0050120156249999995
411,471.25819695919483
412,0.029496
413,1671.3782657218203
427,46.95419491604301
428,704.1267855259554
503,1.9708096266484239
504,1.9708096266484239
505,0.12998674
533,1673.597714783562
2,1, 1,15, 0,13, 0.00,60.00,WinterDesignDay
7,-3.0
8,18.800936449453697
9,17.999461037934022
10,17.999461037933706
11,18.80093644945111
12,19.801308629453374
147,18.59416081043317
210,18.59416081043296
273,19.801308629450958
336,50.03
399,471.2581976912745
400,0.029496
403,365.5406610049426
404,0.0050120156249999995
407,365.5406610049438
408,0.0050120156249999995
411,471.25819769131215
412,0.029496
413,1671.3782683361756
427,46.954194911231866
428,704.1267866273442
503,1.9708096266442068
504,1.9708096266442068
505,0.12998674
533,1673.597717392473
2,1, 1,15, 0,14, 0.00,60.00,WinterDesignDay
7,-3.0
8,18.800936402653605
9,17.999460989677026
10,17.999460989676447
11,18.800936402651374
12,19.80130858638016
147,18.594160765288475
210,18.594160765287985
273,19.80130858637803
336,50.03
399,471.2581983744836
400,0.029496
403,365.5406615390451
404,0.0050120156249999995
407,365.5406615390502
408,0.0050120156249999995
411,471.2581983745182
412,0.029496
413,1671.3782707758826
427,46.95419490674212
428,704.1267876551564
503,1.9708096266402715
504,1.9708096266402715
505,0.12998674
533,1673.597719827097
2,1, 1,15, 0,15, 0.00,60.00,WinterDesignDay
7,-3.0
8,18.800936358980202
9,17.999460944644245
10,17.99946094464356
11,18.800936358978433
12,19.80130854618461
147,18.594160723160016
210,18.59416072315939
273,19.8013085461829
336,50.03
399,471.25819901204966
400,0.029496
403,365.5406620374635
404,0.0050120156249999995
407,365.5406620374706
408,0.0050120156249999995
411,471.2581990120779
412,0.029496
413,1671.3782730525909
427,46.95419490255233
428,704.1267886142997
503,1.970809626636599
504,1.970809626636599
505,0.12998674
533,1673.5977220990617
2,1, 1,15, 0,16, 0.00,60.00,WinterDesignDay
7,-3.0
8,18.800936318224615
9,17.99946090262018
10,17.99946090261973
11,18.800936318223414
12,19.801308508674524
147,18.594160683846226
210,18.594160683845775
273,19.801308508673316
336,50.03
399,471.2581996070195
400,0.029496
403,365.54066250258154
404,0.0050120156249999995
407,365.5406625025875
408,0.0050120156249999995
411,471.2581996070405
412,0.029496
413,1671.3782751771876
427,46.95419489864248
428,704.1267895093606
503,1.970809626633172
504,1.970809626633172
505,0.12998674
533,1673.597724219229
2,1, 1,15, 0,17, 0.00,60.00,WinterDesignDay
7,-3.0
8,18.800936280192026
9,17.999460863403563
10,17.999460863403627
11,18.800936280191436
12,19.801308473670563
147,18.59416064715885
210,18.594160647158844
273,19.80130847366992
336,50.03
399,471.2582001622391
400,0.029496
403,365.54066293662567
404,0.0050120156249999995
407,365.5406629366272
408,0.0050120156249999995
411,471.25820016225066
412,0.029496
413,1671.3782771598321
427,46.954194894993854
428,704.1267903446194
503,1.9708096266299742
504,1.9708096266299742
505,0.12998674
533,1673.5977261977428
2,1, 1,15, 0,18, 0.00,60.00,WinterDesignDay
7,-3.0
8,18.80093624470051
9,17.999460826806857
10,17.99946082680725
11,18.80093624470012
12,19.80130844100533
147,18.594160612922405
210,18.594160612922728
273,19.801308441004917
336,50.03
399,471.2582006803621
400,0.029496
403,365.54066334167385
404,0.0050120156249999995
407,365.5406633416708
408,0.0050120156249999995
411,471.2582006803687
412,0.029496
413,1671.3782790100213
427,46.95419489158899
428,704.1267911240766
503,1.9708096266269899
504,1.9708096266269899
505,0.12998674
533,1673.5977280440754
2,1, 1,15, 0,19, 0.00,60.00,WinterDesignDay
7,-3.0
8,18.800936211580016
9,17.99946079265527
10,17.999460792655697
11,18.80093621157966
12,19.801308410522335
147,18.59416058097336
210,18.594160580973746
273,19.80130841052198
336,50.03
399,471.25820116387007
400,0.029496
403,365.5406637196604
404,0.0050120156249999995
407,365.5406637196559
408,0.0050120156249999995
411,471.2582011638762
412,0.029496
413,1671.3782807366056
427,46.95419488841159
428,704.1267918514609
503,1.970809626624205
504,1.970809626624205
505,0.12998674
533,1673.5977297670624
2,1, 1,15, 0,20, 0.00,60.00,WinterDesignDay
7,-3.0
8,18.800936180672206
9,17.999460760785535
10,17.99946076078577
11,18.800936180671982
12,19.80130838207581
147,18.594160551158993
210,18.594160551159234
273,19.801308382075575
336,50.03
399,471.25820161507767
400,0.029496
403,365.540664072392
404,0.0050120156249999995
407,365.5406640723884
408,0.0050120156249999995
411,471.25820161508204
412,0.029496
413,1671.3782823478418
427,46.95419488544646
428,704.1267925302507
503,1.9708096266216057
504,1.9708096266216057
505,0.12998674
533,1673.5977313749404
2,1, 1,15, 0,21, 0.00,60.00,WinterDesignDay
7,-3.0
8,18.80093615182968
9,17.99946073104526
10,17.99946073104502
11,18.800936151829482
12,19.801308355530068
147,18.59416052333674
210,18.59416052333658
273,19.801308355529873
336,50.03
399,471.2582020361372
400,0.029496
403,365.54066440155526
404,0.0050120156249999995
407,365.54066440155583
408,0.0050120156249999995
411,471.2582020361405
412,0.029496
413,1671.3782838514242
427,46.954194882679445
428,704.1267931636875
503,1.9708096266191804
504,1.9708096266191804
505,0.12998674
533,1673.5977328753888
2,1, 1,15, 0,22, 0.00,60.00,WinterDesignDay
7,-3.0
8,18.800936124914212
9,17.99946070329214
10,17.999460703291383
11,18.800936124914145
12,19.801308330757948
147,18.594160497373498
210,18.59416049737285
273,19.801308330757863
336,50.03
399,471.2582024290625
400,0.029496
403,365.5406647087245
404,0.0050120156249999995
407,365.5406647087307
408,0.0050120156249999995
411,471.25820242906474
412,0.029496
413,1671.3782852545426
427,46.95419488009732
428,704.1267937548004
503,1.9708096266169173
504,1.9708096266169173
505,0.12998674
533,1673.5977342755823
2,1, 1,15, 0,23, 0.00,60.00,WinterDesignDay
7,-3.0
8,18.80093609979682
9,17.999460677393042
10,17.999460677392086
11,18.80093609979695
12,19.80130830764074
147,18.59416047314474
210,18.59416047314387
273,19.801308307640834
336,50.03
399,471.2582027957381
400,0.029496
403,365.54066499537214
404,0.0050120156249999995
407,365.540664995382
408,0.0050120156249999995
411,471.258202795737
412,0.029496
413,1671.3782865639175
427,46.9541948776877
428,704.1267943064206
503,1.9708096266148054
504,1.9708096266148054
505,0.12998674
533,1673.5977355822295
2,1, 1,15, 0,24, 0.00,60.00,WinterDesignDay
7,-3.0
8,18.800936076357296
9,17.99946065322401
10,17.999460653223384
11,18.800936076357555
12,19.8013082860678
147,18.59416045053448
210,18.594160450533852
273,19.801308286068014
336,50.03
399,471.2582031379184
400,0.029496
403,365.54066526287124
404,0.0050120156249999995
407,365.5406652628798
408,0.0050120156249999995
411,471.2582031379157
412,0.029496
413,1671.3782877858212
427,46.95419487543906
428,704.1267948211905
503,1.9708096266128343
504,1.9708096266128343
505,0.12998674
533,1673.597736801585
End of Data
 Number of Records Written=         600
