Program Version,EnergyPlus, Version 24.2.0-94a887817b, YMD=2025.06.24 13:52
1,5,Environment Title[],Latitude[deg],Longitude[deg],Time Zone[],Elevation[m]
2,8,Day of Simulation[],Month[],Day of Month[],DST Indicator[1=yes 0=no],Hour[],StartMinute[],EndMinute[],DayType
3,5,Cumulative Day of Simulation[],Month[],Day of Month[],DST Indicator[1=yes 0=no],DayType  ! When Daily Report Variables Requested
4,2,Cumulative Days of Simulation[],Month[]  ! When Monthly Report Variables Requested
5,1,Cumulative Days of Simulation[] ! When Run Period Report Variables Requested
6,1,Calendar Year of Simulation[] ! When Annual Report Variables Requested
7,1,Environment,Site Outdoor Air Drybulb Temperature [C] !Hourly
8,1,EXT SURFACE EAST SOUTH,Surface Inside Face Temperature [C] !Hourly
9,1,EXT SURFACE EAST SOUTH,Surface Outside Face Temperature [C] !Hourly
10,1,EXT SURFACE EAST SOUTH,Surface Inside Face Adjacent Air Temperature [C] !Hourly
11,1,EXT SURFACE EAST SOUTH,Surface Outside Face Outdoor Air Drybulb Temperature [C] !Hourly
12,1,EXT SURFACE EAST SOUTH,Surface Average Face Conduction Heat Transfer Rate [W] !Hourly
13,1,EXT SURFACE SOUTH EAST,Surface Inside Face Temperature [C] !Hourly
14,1,EXT SURFACE SOUTH EAST,Surface Outside Face Temperature [C] !Hourly
15,1,EXT SURFACE SOUTH EAST,Surface Inside Face Adjacent Air Temperature [C] !Hourly
16,1,EXT SURFACE SOUTH EAST,Surface Outside Face Outdoor Air Drybulb Temperature [C] !Hourly
17,1,EXT SURFACE SOUTH EAST,Surface Average Face Conduction Heat Transfer Rate [W] !Hourly
18,1,EXT SURFACE ROOF SE,Surface Inside Face Temperature [C] !Hourly
19,1,EXT SURFACE ROOF SE,Surface Outside Face Temperature [C] !Hourly
20,1,EXT SURFACE ROOF SE,Surface Inside Face Adjacent Air Temperature [C] !Hourly
21,1,EXT SURFACE ROOF SE,Surface Outside Face Outdoor Air Drybulb Temperature [C] !Hourly
22,1,EXT SURFACE ROOF SE,Surface Average Face Conduction Heat Transfer Rate [W] !Hourly
23,1,PZ1Z2,Surface Inside Face Temperature [C] !Hourly
24,1,PZ1Z2,Surface Outside Face Temperature [C] !Hourly
25,1,PZ1Z2,Surface Inside Face Adjacent Air Temperature [C] !Hourly
26,1,PZ1Z2,Surface Average Face Conduction Heat Transfer Rate [W] !Hourly
27,1,PZ1Z3,Surface Inside Face Temperature [C] !Hourly
28,1,PZ1Z3,Surface Outside Face Temperature [C] !Hourly
29,1,PZ1Z3,Surface Inside Face Adjacent Air Temperature [C] !Hourly
30,1,PZ1Z3,Surface Average Face Conduction Heat Transfer Rate [W] !Hourly
31,1,EXT SURFACE FLOOR SE,Surface Inside Face Temperature [C] !Hourly
32,1,EXT SURFACE FLOOR SE,Surface Outside Face Temperature [C] !Hourly
33,1,EXT SURFACE FLOOR SE,Surface Inside Face Adjacent Air Temperature [C] !Hourly
34,1,EXT SURFACE FLOOR SE,Surface Average Face Conduction Heat Transfer Rate [W] !Hourly
35,1,EXT SURFACE SOUTH WEST,Surface Inside Face Temperature [C] !Hourly
36,1,EXT SURFACE SOUTH WEST,Surface Outside Face Temperature [C] !Hourly
37,1,EXT SURFACE SOUTH WEST,Surface Inside Face Adjacent Air Temperature [C] !Hourly
38,1,EXT SURFACE SOUTH WEST,Surface Outside Face Outdoor Air Drybulb Temperature [C] !Hourly
39,1,EXT SURFACE SOUTH WEST,Surface Average Face Conduction Heat Transfer Rate [W] !Hourly
40,1,EXT SURFACE WEST SOUTH,Surface Inside Face Temperature [C] !Hourly
41,1,EXT SURFACE WEST SOUTH,Surface Outside Face Temperature [C] !Hourly
42,1,EXT SURFACE WEST SOUTH,Surface Inside Face Adjacent Air Temperature [C] !Hourly
43,1,EXT SURFACE WEST SOUTH,Surface Outside Face Outdoor Air Drybulb Temperature [C] !Hourly
44,1,EXT SURFACE WEST SOUTH,Surface Average Face Conduction Heat Transfer Rate [W] !Hourly
45,1,EXT SURFACE ROOF SW,Surface Inside Face Temperature [C] !Hourly
46,1,EXT SURFACE ROOF SW,Surface Outside Face Temperature [C] !Hourly
47,1,EXT SURFACE ROOF SW,Surface Inside Face Adjacent Air Temperature [C] !Hourly
48,1,EXT SURFACE ROOF SW,Surface Outside Face Outdoor Air Drybulb Temperature [C] !Hourly
49,1,EXT SURFACE ROOF SW,Surface Average Face Conduction Heat Transfer Rate [W] !Hourly
50,1,PZ2Z1,Surface Inside Face Temperature [C] !Hourly
51,1,PZ2Z1,Surface Outside Face Temperature [C] !Hourly
52,1,PZ2Z1,Surface Inside Face Adjacent Air Temperature [C] !Hourly
53,1,PZ2Z1,Surface Average Face Conduction Heat Transfer Rate [W] !Hourly
54,1,PZ2Z4,Surface Inside Face Temperature [C] !Hourly
55,1,PZ2Z4,Surface Outside Face Temperature [C] !Hourly
56,1,PZ2Z4,Surface Inside Face Adjacent Air Temperature [C] !Hourly
57,1,PZ2Z4,Surface Average Face Conduction Heat Transfer Rate [W] !Hourly
58,1,EXT SURFACE FLOOR SW,Surface Inside Face Temperature [C] !Hourly
59,1,EXT SURFACE FLOOR SW,Surface Outside Face Temperature [C] !Hourly
60,1,EXT SURFACE FLOOR SW,Surface Inside Face Adjacent Air Temperature [C] !Hourly
61,1,EXT SURFACE FLOOR SW,Surface Average Face Conduction Heat Transfer Rate [W] !Hourly
62,1,EXT SURFACE NORTH EAST,Surface Inside Face Temperature [C] !Hourly
63,1,EXT SURFACE NORTH EAST,Surface Outside Face Temperature [C] !Hourly
64,1,EXT SURFACE NORTH EAST,Surface Inside Face Adjacent Air Temperature [C] !Hourly
65,1,EXT SURFACE NORTH EAST,Surface Outside Face Outdoor Air Drybulb Temperature [C] !Hourly
66,1,EXT SURFACE NORTH EAST,Surface Average Face Conduction Heat Transfer Rate [W] !Hourly
67,1,EXT SURFACE EAST NORTH,Surface Inside Face Temperature [C] !Hourly
68,1,EXT SURFACE EAST NORTH,Surface Outside Face Temperature [C] !Hourly
69,1,EXT SURFACE EAST NORTH,Surface Inside Face Adjacent Air Temperature [C] !Hourly
70,1,EXT SURFACE EAST NORTH,Surface Outside Face Outdoor Air Drybulb Temperature [C] !Hourly
71,1,EXT SURFACE EAST NORTH,Surface Average Face Conduction Heat Transfer Rate [W] !Hourly
72,1,EXT SURFACE ROOF NE,Surface Inside Face Temperature [C] !Hourly
73,1,EXT SURFACE ROOF NE,Surface Outside Face Temperature [C] !Hourly
74,1,EXT SURFACE ROOF NE,Surface Inside Face Adjacent Air Temperature [C] !Hourly
75,1,EXT SURFACE ROOF NE,Surface Outside Face Outdoor Air Drybulb Temperature [C] !Hourly
76,1,EXT SURFACE ROOF NE,Surface Average Face Conduction Heat Transfer Rate [W] !Hourly
77,1,PZ3Z1,Surface Inside Face Temperature [C] !Hourly
78,1,PZ3Z1,Surface Outside Face Temperature [C] !Hourly
79,1,PZ3Z1,Surface Inside Face Adjacent Air Temperature [C] !Hourly
80,1,PZ3Z1,Surface Average Face Conduction Heat Transfer Rate [W] !Hourly
81,1,PZ3Z4,Surface Inside Face Temperature [C] !Hourly
82,1,PZ3Z4,Surface Outside Face Temperature [C] !Hourly
83,1,PZ3Z4,Surface Inside Face Adjacent Air Temperature [C] !Hourly
84,1,PZ3Z4,Surface Average Face Conduction Heat Transfer Rate [W] !Hourly
85,1,EXT SURFACE FLOOR NE,Surface Inside Face Temperature [C] !Hourly
86,1,EXT SURFACE FLOOR NE,Surface Outside Face Temperature [C] !Hourly
87,1,EXT SURFACE FLOOR NE,Surface Inside Face Adjacent Air Temperature [C] !Hourly
88,1,EXT SURFACE FLOOR NE,Surface Average Face Conduction Heat Transfer Rate [W] !Hourly
89,1,EXT SURFACE NORTH WEST,Surface Inside Face Temperature [C] !Hourly
90,1,EXT SURFACE NORTH WEST,Surface Outside Face Temperature [C] !Hourly
91,1,EXT SURFACE NORTH WEST,Surface Inside Face Adjacent Air Temperature [C] !Hourly
92,1,EXT SURFACE NORTH WEST,Surface Outside Face Outdoor Air Drybulb Temperature [C] !Hourly
93,1,EXT SURFACE NORTH WEST,Surface Average Face Conduction Heat Transfer Rate [W] !Hourly
94,1,EXT SURFACE WEST NORTH,Surface Inside Face Temperature [C] !Hourly
95,1,EXT SURFACE WEST NORTH,Surface Outside Face Temperature [C] !Hourly
96,1,EXT SURFACE WEST NORTH,Surface Inside Face Adjacent Air Temperature [C] !Hourly
97,1,EXT SURFACE WEST NORTH,Surface Outside Face Outdoor Air Drybulb Temperature [C] !Hourly
98,1,EXT SURFACE WEST NORTH,Surface Average Face Conduction Heat Transfer Rate [W] !Hourly
99,1,EXT SURFACE ROOF NW,Surface Inside Face Temperature [C] !Hourly
100,1,EXT SURFACE ROOF NW,Surface Outside Face Temperature [C] !Hourly
101,1,EXT SURFACE ROOF NW,Surface Inside Face Adjacent Air Temperature [C] !Hourly
102,1,EXT SURFACE ROOF NW,Surface Outside Face Outdoor Air Drybulb Temperature [C] !Hourly
103,1,EXT SURFACE ROOF NW,Surface Average Face Conduction Heat Transfer Rate [W] !Hourly
104,1,PZ4Z2,Surface Inside Face Temperature [C] !Hourly
105,1,PZ4Z2,Surface Outside Face Temperature [C] !Hourly
106,1,PZ4Z2,Surface Inside Face Adjacent Air Temperature [C] !Hourly
107,1,PZ4Z2,Surface Average Face Conduction Heat Transfer Rate [W] !Hourly
108,1,PZ4Z3,Surface Inside Face Temperature [C] !Hourly
109,1,PZ4Z3,Surface Outside Face Temperature [C] !Hourly
110,1,PZ4Z3,Surface Inside Face Adjacent Air Temperature [C] !Hourly
111,1,PZ4Z3,Surface Average Face Conduction Heat Transfer Rate [W] !Hourly
112,1,EXT SURFACE FLOOR NW,Surface Inside Face Temperature [C] !Hourly
113,1,EXT SURFACE FLOOR NW,Surface Outside Face Temperature [C] !Hourly
114,1,EXT SURFACE FLOOR NW,Surface Inside Face Adjacent Air Temperature [C] !Hourly
115,1,EXT SURFACE FLOOR NW,Surface Average Face Conduction Heat Transfer Rate [W] !Hourly
116,1,Z1,Zone Air Temperature [C] !Hourly
117,1,Z1,Zone Air System Sensible Heating Energy [J] !Hourly
251,1,Z1,Zone Predicted Sensible Load to Setpoint Heat Transfer Rate [W] !Hourly
252,1,Z2,Zone Air Temperature [C] !Hourly
253,1,Z2,Zone Air System Sensible Heating Energy [J] !Hourly
315,1,Z2,Zone Predicted Sensible Load to Setpoint Heat Transfer Rate [W] !Hourly
316,1,Z3,Zone Air Temperature [C] !Hourly
317,1,Z3,Zone Air System Sensible Heating Energy [J] !Hourly
379,1,Z3,Zone Predicted Sensible Load to Setpoint Heat Transfer Rate [W] !Hourly
380,1,Z4,Zone Air Temperature [C] !Hourly
381,1,Z4,Zone Air System Sensible Heating Energy [J] !Hourly
443,1,Z4,Zone Predicted Sensible Load to Setpoint Heat Transfer Rate [W] !Hourly
542,1,Z1 PURCHASED AIR,Zone Ideal Loads Zone Total Heating Rate [W] !Hourly
545,1,Z2 PURCHASED AIR,Zone Ideal Loads Zone Total Heating Rate [W] !Hourly
548,1,Z3 PURCHASED AIR,Zone Ideal Loads Zone Total Heating Rate [W] !Hourly
551,1,Z4 PURCHASED AIR,Zone Ideal Loads Zone Total Heating Rate [W] !Hourly
446,1,DistrictHeatingWater:Facility [J] !Hourly
End of Data Dictionary
1,SUMMER DESIGN DAY IN SALFORD ENERGY HOUSE 1.0 (01-01:31-12) JUN HVAC Sizing Pass 1,  53.35,  -2.28,   0.00,  69.00
2,1, 6,15, 1, 1, 0.00,60.00,SummerDesignDay
7,18.983
8,21.089825311282084
9,19.092906644410675
10,21.523085501828554
11,18.985274999051487
12,-12.329763103311166
13,21.089825311282084
14,19.092906644410675
15,21.523085501828554
16,18.985274999051487
17,-12.329763103311166
18,21.17780311772399
19,19.0903224408733
20,21.523085501828554
21,18.97780000310887
22,-22.41552994501972
23,21.737092866238335
24,21.73709286473707
25,21.523085501828554
26,-1.8215419705924774e-7
27,21.737092869615022
28,21.73709287004013
29,21.523085501828554
30,5.158068394628401e-8
31,21.5236584429331
32,18.0
33,21.523085501828554
34,-0.000555453547654479
35,21.08982530352947
36,19.09290664401388
37,21.523085492497373
38,18.985274999051487
39,-12.32976305796581
40,21.08982530352947
41,19.09290664401388
42,21.523085492497373
43,18.985274999051487
44,-12.32976305796581
45,21.17780310964968
46,19.090322440459712
47,21.523085492497373
48,18.97780000310887
49,-22.415529862889418
50,21.73709286473707
51,21.737092866238335
52,21.523085492497373
53,1.8215561903289768e-7
54,21.7370928628507
55,21.7370928632758
56,21.523085492497373
57,5.1579866711115585e-8
58,21.523658433592402
59,18.0
60,21.523085492497373
61,-0.0005554535461820537
62,21.08982531347729
63,19.092906644523033
64,21.523085504470746
65,18.985274999051487
66,-12.329763116151003
67,21.08982531347729
68,19.092906644523033
69,21.523085504470746
70,18.985274999051487
71,-12.329763116151003
72,21.177803120010285
73,19.090322440990413
74,21.523085504470746
75,18.97780000310887
76,-22.41552996827547
77,21.73709287004013
78,21.737092869615022
79,21.523085504470746
80,-5.157924576337791e-8
81,21.737092868153756
82,21.737092866652496
83,21.523085504470746
84,-1.8215367425522544e-7
85,21.523658445577983
86,18.0
87,21.523085504470746
88,-0.0005554535480714065
89,21.089825305724677
90,19.092906644126238
91,21.523085495139558
92,18.985274999051487
93,-12.329763070805647
94,21.089825305724677
95,19.092906644126238
96,21.523085495139558
97,18.985274999051487
98,-12.329763070805647
99,21.177803111935972
100,19.09032244057682
101,21.523085495139558
102,18.97780000310887
103,-22.415529886145162
104,21.7370928632758
105,21.7370928628507
106,21.523085495139558
107,-5.1578641246941004e-8
108,21.737092866652496
109,21.737092868153756
110,21.523085495139558
111,1.8215503072571693e-7
112,21.523658436237284
113,18.0
114,21.523085495139558
115,-0.0005554535465989813
116,21.40401971105772
117,0.0
251,-379.18755230241055
252,21.40401970334408
253,0.0
315,-379.18754836798377
316,21.40401971324181
317,0.0
379,-379.18755341597176
380,21.404019705528157
381,0.0
443,-379.18754948154236
542,0.0
545,0.0
548,0.0
551,0.0
446,0.0
2,1, 6,15, 1, 2, 0.00,60.00,SummerDesignDay
7,18.622
8,20.638749928816967
9,18.72723582976168
10,21.05371075673647
11,18.624274999051487
12,-11.801174573276121
13,20.638749928816967
14,18.72723582976168
15,21.05371075673647
16,18.624274999051487
17,-11.801174573276121
18,20.722991589752
19,18.724460442078495
20,21.05371075673647
21,18.61680000310887
22,-21.45808685974307
23,21.2640522923613
24,21.26405229166055
25,21.05371075673647
26,-8.502497050866253e-8
27,21.26405229394276
28,21.264052294141152
29,21.05371075673647
30,2.4072117743578758e-8
31,21.054264098895633
32,18.0
33,21.05371075673647
34,-0.00048146035056482886
35,20.63874992519545
36,18.72723582957632
37,21.053710752377533
38,18.624274999051487
39,-11.801174552093688
40,20.63874992519545
41,18.72723582957632
42,21.053710752377533
43,18.624274999051487
44,-11.801174552093688
45,20.722991585980203
46,18.724460441885295
47,21.053710752377533
48,18.61680000310887
49,-21.45808682137701
50,21.26405229166055
51,21.2640522923613
52,21.053710752377533
53,8.502632686813172e-8
54,21.264052290776988
55,21.264052290975375
56,21.053710752377533
57,2.407233012924337e-8
58,21.054264094532254
59,18.0
60,21.053710752377533
61,-0.0004814603498770057
62,20.638749929842213
63,18.727235829814152
64,21.053710757970475
65,18.624274999051487
66,-11.801174579272839
67,20.638749929842213
68,18.727235829814152
69,21.053710757970475
70,18.624274999051487
71,-11.801174579272839
72,20.722991590819785
73,18.724460442133193
74,21.053710757970475
75,18.61680000310887
76,-21.45808687060441
77,21.264052294141152
78,21.26405229394276
79,21.053710757970475
80,-2.4070777704388036e-8
81,21.264052293257592
82,21.264052292556837
83,21.053710757970475
84,-8.502606541060942e-8
85,21.054264100130894
86,18.0
87,21.053710757970475
88,-0.0004814603507595496
89,20.638749926220683
90,18.727235829628793
91,21.05371075361153
92,18.624274999051487
93,-11.801174558090334
94,20.638749926220683
95,18.727235829628793
96,21.05371075361153
97,18.624274999051487
98,-11.801174558090334
99,20.722991587047982
100,18.724460441939993
101,21.05371075361153
102,18.61680000310887
103,-21.458086832238266
104,21.264052290975375
105,21.264052290776988
106,21.05371075361153
107,-2.4070957449495722e-8
108,21.264052292556837
109,21.264052293257592
110,21.05371075361153
111,8.502724202497092e-8
112,21.05426409576751
113,18.0
114,21.05371075361153
115,-0.0004814603500717256
116,20.97467523248339
117,40797.31937878195
251,-68.02394453150356
252,20.974675229890906
253,40797.32058977547
315,-68.02394269074006
316,20.974675233217283
317,40797.31903596379
379,-68.023945052517
380,20.974675230624797
381,40797.320246959454
443,-68.0239432117512
542,11.376122796517494
545,11.376123189548945
548,11.376122705302732
551,11.376123098334814
446,163816.17044293435
2,1, 6,15, 1, 3, 0.00,60.00,SummerDesignDay
7,18.3655
8,20.522357482304734
9,18.477716652126368
10,20.967947278638007
11,18.367774999051484
12,-12.627818239468727
13,20.522357482304734
14,18.477716652126368
15,20.967947278638007
16,18.367774999051484
17,-12.627818239468727
18,20.613055007963062
19,18.475253022627108
20,20.967947278638007
21,18.36030000310887
22,-22.96204104949202
23,21.00968058169221
24,21.009680581706924
25,20.967947278638007
26,2.623769302517731e-9
27,21.009680581879216
28,21.009680581875052
29,20.967947278638007
30,-7.416708722868259e-10
31,20.95860593282999
32,18.0
33,20.967947278638007
34,-0.00046638123079093403
35,20.52235748268371
36,18.477716652145443
37,20.96794727911546
38,18.367774999051484
39,-12.627818241721476
40,20.52235748268371
41,18.477716652145443
42,20.96794727911546
43,18.367774999051484
44,-12.627818241721476
45,20.613055008367287
46,18.47525302264707
47,20.96794727911546
48,18.36030000310887
49,-22.9620410536736
50,21.009680581706924
51,21.00968058169221
52,20.96794727911546
53,-2.6224455775339384e-9
54,21.009680581602442
55,21.009680581598275
56,20.96794727911546
57,-7.415728378590281e-10
58,20.95860593299144
59,18.0
60,20.96794727911546
61,-0.00046638123081638416
62,20.52235748219745
63,18.47771665212096
64,20.96794727850285
65,18.367774999051484
66,-12.627818238831
67,20.52235748219745
68,18.47771665212096
69,20.96794727850285
70,18.367774999051484
71,-12.627818238831
72,20.613055007848633
73,18.475253022621455
74,20.96794727850285
75,18.36030000310887
76,-22.96204104830828
77,21.009680581875052
78,21.009680581879216
79,20.96794727850285
80,7.431253919512604e-10
81,21.00968058177056
82,21.009680581785272
83,20.96794727850285
84,2.6233770850092597e-9
85,20.958605932784277
86,18.0
87,20.96794727850285
88,-0.0004663812307837282
89,20.522357482576428
90,18.477716652140046
91,20.967947278980304
92,18.367774999051484
93,-12.627818241083766
94,20.522357482576428
95,18.477716652140046
96,20.967947278980304
97,18.367774999051484
98,-12.627818241083766
99,20.613055008252857
100,18.475253022641418
101,20.967947278980304
102,18.36030000310887
103,-22.96204105248984
104,21.009680581598275
105,21.009680581602442
106,20.967947278980304
107,7.429782986762001e-10
108,21.009680581785272
109,21.00968058177056
110,20.967947278980304
111,-2.6220206552837744e-9
112,20.958605932945723
113,18.0
114,20.967947278980304
115,-0.000466381230809178
116,20.990178892743725
117,182106.80178396287
251,50.625021156241054
252,20.99017889287762
253,182106.8015037073
315,50.62502107758117
316,20.99017889270582
317,182106.8018632878
379,50.62502117850535
380,20.990178892839715
381,182106.8015830324
443,50.625021099845505
542,50.764856545542315
545,50.76485669094629
548,50.76485658836876
551,50.76485673377296
446,731013.9356110691
2,1, 6,15, 1, 4, 0.00,60.00,SummerDesignDay
7,18.1375
8,20.51125996947283
9,18.26071659623951
10,20.999399169237808
11,18.139774999051486
12,-13.898122493383493
13,20.51125996947283
14,18.26071659623951
15,20.999399169237808
16,18.139774999051486
17,-13.898122493383493
18,20.610307795888517
19,18.258719226116504
20,20.999399169237808
21,18.13230000310887
22,-25.255853382123412
23,21.00028522144408
24,21.00028522144404
25,20.999399169237808
26,-5.017142951091458e-12
27,21.000285221449683
28,21.000285221449698
29,20.999399169237808
30,2.5167429446894263e-12
31,20.99548951356641
32,18.0
33,20.999399169237808
34,-0.0004721953913011093
35,20.51125996948422
36,18.260716596239952
37,20.999399169247695
38,18.139774999051486
39,-13.898122493450458
40,20.511259969560605
41,18.26071659677868
42,20.999399169247695
43,18.139774999051486
44,-13.898122490573847
45,20.610307795899164
46,18.258719226116963
47,20.999399169247695
48,18.13230000310887
49,-25.255853382231845
50,21.00028522144404
51,21.00028522144408
52,20.999399169247695
53,6.373568719238859e-12
54,21.000285221440905
55,21.000285221440915
56,20.999399169247695
57,2.189892473088151e-12
58,20.99548951361746
59,18.0
60,20.999399169247695
61,-0.00047219539130915605
62,20.511259969531555
63,18.260716596676247
64,20.999399169235016
65,18.139774999051486
66,-13.89812249103187
67,20.51125996946961
68,18.260716596239384
69,20.999399169235016
70,18.139774999051486
71,-13.898122493364566
72,20.610307795885504
73,18.258719226116376
74,20.999399169235016
75,18.13230000310887
76,-25.255853382092745
77,21.000285221449698
78,21.000285221449683
79,20.999399169235016
80,-1.1603159297095267e-12
81,21.000285221446557
82,21.00028522144652
83,20.999399169235016
84,-4.755662606336503e-12
85,20.995489513551963
86,18.0
87,20.999399169235016
88,-0.0004721953912988314
89,20.511259969542934
90,18.26071659667669
91,20.999399169244896
92,18.139774999051486
93,-13.898122491098786
94,20.51125996955738
95,18.260716596778554
96,20.999399169244896
97,18.139774999051486
98,-13.898122490554876
99,20.61030779589615
100,18.25871922611683
101,20.999399169244896
102,18.13230000310887
103,-25.255853382201146
104,21.000285221440915
105,21.000285221440905
106,20.999399169244896
107,-8.824935140289147e-13
108,21.00028522144652
109,21.000285221446557
110,20.999399169244896
111,6.242828086075458e-12
112,20.995489513603005
113,18.0
114,20.999399169244896
115,-0.00047219539130687694
116,20.9997128802189
117,190352.92802062363
251,52.87637672710687
252,20.999712880223342
253,190352.92800782775
315,52.87637672354266
316,20.999712880217643
317,190352.92801573116
379,52.876376725750625
380,20.999712880222084
381,190352.9280029403
443,52.87637672218781
542,53.00293029085704
545,53.00293049026218
548,53.00293030805081
551,53.002930507457464
446,763242.1977478589
2,1, 6,15, 1, 5, 0.00,60.00,SummerDesignDay
7,17.957
8,20.480447291499885
9,18.087823692585985
10,20.999967645767647
11,17.959274999051484
12,-14.77465478186739
13,20.480447291499885
14,18.087823692585985
15,20.999967645767647
16,17.959274999051484
17,-14.77465478186739
18,20.58606441985355
19,18.08615508347831
20,20.999967645767647
21,17.95180000310887
22,-26.84722517008272
23,21.00001623931891
24,21.00001623931892
25,20.999967645767647
26,1.5198509090803489e-12
27,21.000016239319145
28,21.000016239319145
29,20.999967645767647
30,7.354117348998355e-13
31,20.99927672756108
32,18.0
33,20.999967645767647
34,-0.00047279239055150025
35,20.48044729150038
36,18.087823692586003
37,20.99996764576804
38,17.959274999051484
39,-14.774654781870296
40,20.480447504784788
41,18.087825064290083
42,20.99996764576804
43,17.959274999051484
44,-14.774647604733216
45,20.586064419853997
46,18.08615508347833
47,20.99996764576804
48,17.95180000310887
49,-26.847225170087274
50,21.00001623931892
51,21.00001623931891
52,20.99996764576804
53,-2.2879475278323597e-13
54,21.000016239318782
55,21.00001623931879
56,20.99996764576804
57,1.4544809956863313e-12
58,20.999276727569185
59,18.0
60,20.99996764576804
61,-0.00047279239055277765
62,20.480447414618848
63,18.087824478966134
64,20.999967645767537
65,17.959274999051484
66,-14.774650673917744
67,20.480447291499743
68,18.08782369258598
69,20.999967645767537
70,17.959274999051484
71,-14.774654781866559
72,20.58606441985342
73,18.086155083478307
74,20.999967645767537
75,17.95180000310887
76,-26.847225170081416
77,21.000016239319145
78,21.000016239319145
79,20.999967645767537
80,7.517542157894387e-13
81,21.00001623931902
82,21.000016239319024
83,20.999967645767537
84,9.478640000172046e-13
85,20.999276727558787
86,18.0
87,20.999967645767537
88,-0.0004727923905511388
89,20.480447414619334
90,18.08782447896615
91,20.999967645767924
92,17.959274999051484
93,-14.774650673920611
94,20.480447504784642
95,18.08782506429008
96,20.999967645767924
97,17.959274999051484
98,-14.77464760473238
99,20.586064419853862
100,18.086155083478324
101,20.999967645767924
102,17.95180000310887
103,-26.84722517008594
104,21.00001623931879
105,21.000016239318782
106,20.999967645767924
107,-1.0164395367051604e-20
108,21.000016239319024
109,21.00001623931902
110,20.999967645767924
111,4.57589536059658e-13
112,20.999276727566887
113,18.0
114,20.999967645767924
115,-0.00047279239055241564
116,20.9999837492878
117,202212.85327411286
251,56.17026792063137
252,20.99998374928797
253,202212.83154478544
315,56.17026188470477
316,20.999983749287743
317,202212.8407312376
379,56.17026443649831
380,20.999983749287914
381,202212.81900191272
443,56.17025840057241
542,56.2859067724618
545,56.28590091016785
548,56.28590329844189
551,56.28589743614872
446,810516.990301993
2,1, 6,15, 1, 6, 0.00,60.00,SummerDesignDay
7,17.994999999999997
8,20.482589108305064
9,18.124041965189527
10,20.999997641091454
11,17.997274999051488
12,-14.561373904949166
13,20.482589108305064
14,18.124041965189527
15,20.999997641091454
16,17.997274999051488
17,-14.561373904949166
18,20.588533384829248
19,18.122315811319258
20,20.999997641091454
21,17.989800003108872
22,-26.48025355829874
23,21.000001465897434
24,21.000001465897437
25,20.999997641091454
26,8.498091123502446e-13
27,21.000001465897455
28,21.000001465897455
29,20.999997641091454
30,7.680966966790419e-13
31,20.999829720481813
32,18.0
33,20.999997641091454
34,-0.0004728795618493497
35,20.48258910830507
36,18.124041965189527
37,20.99999764109144
38,17.997274999051488
39,-14.561373904949216
40,20.48258974634343
41,18.124045768032115
42,20.99999764109144
43,17.997274999051488
44,-14.561354344807464
45,20.588533384829255
46,18.122315811319254
47,20.99999764109144
48,17.989800003108872
49,-26.480253558298802
50,21.000001465897437
51,21.000001465897434
52,20.99999764109144
53,4.575895212365815e-13
54,21.00000146589744
55,21.000001465897437
56,20.99999764109144
57,4.902744859804032e-13
58,20.99982972048342
59,18.0
60,20.99999764109144
61,-0.00047287956184960265
62,20.482589351837497
63,18.124043349646236
64,20.999997641091433
65,17.997274999051488
66,-14.561366860564132
67,20.482589108305046
68,18.124041965189527
69,20.999997641091433
70,17.997274999051488
71,-14.56137390494905
72,20.588533384829226
73,18.122315811319254
74,20.999997641091433
75,17.989800003108872
76,-26.480253558298536
77,21.000001465897455
78,21.000001465897455
79,20.999997641091433
80,5.393019388136083e-13
81,21.000001465897448
82,21.00000146589745
83,20.999997641091433
84,1.0132339415750677e-12
85,20.999829720481348
86,18.0
87,20.999997641091433
88,-0.0004728795618492764
89,20.482589351837508
90,18.124043349646236
91,20.99999764109142
92,17.997274999051488
93,-14.561366860564181
94,20.482589746343407
95,18.124045768032115
96,20.99999764109142
97,17.997274999051488
98,-14.561354344807334
99,20.58853338482923
100,18.122315811319254
101,20.99999764109142
102,17.989800003108872
103,-26.480253558298564
104,21.000001465897437
105,21.00000146589744
106,20.99999764109142
107,9.805489745019053e-13
108,21.00000146589745
109,21.000001465897448
110,20.99999764109142
111,1.6342482943658128e-13
112,20.999829720482946
113,18.0
114,20.99999764109142
115,-0.0004728795618495284
116,20.999998624633566
117,201182.77746923952
251,55.88410675745223
252,20.999998624633534
253,201182.71246761768
315,55.88408870144555
316,20.999998624633548
317,201182.75265887304
379,55.884099865683524
380,20.999998624633516
381,201182.68765725158
443,55.88408180967696
542,55.98242186841241
545,55.982403941253466
548,55.98241498034034
551,55.9823970531816
446,806146.6962354761
2,1, 6,15, 1, 7, 0.00,60.00,SummerDesignDay
7,18.3845
8,20.548938850853347
9,18.496868494992228
10,20.99999994330073
11,18.386774999051486
12,-12.665555968461652
13,20.548938850853347
14,18.496868494992228
15,20.99999994330073
16,18.386774999051486
17,-12.665555968461652
18,20.641554776919328
19,18.49445259948874
20,20.99999994330073
21,18.37930000310887
22,-23.04716040640469
23,21.000000039703316
24,21.00000003970332
25,20.99999994330073
26,9.805489753092336e-13
27,21.000000039703313
28,21.00000003970331
29,20.99999994330073
30,4.2490455598983387e-13
31,20.999955070714442
32,18.0
33,20.99999994330073
34,-0.000472899321491932
35,20.5489388508533
36,18.496868494992228
37,20.999999943300676
38,18.386774999051486
39,-12.665555968461371
40,20.548939750454558
41,18.496873548607407
42,20.999999943300676
43,18.386774999051486
44,-12.665530311538868
45,20.64155477691928
46,18.49445259948874
47,20.999999943300676
48,18.37930000310887
49,-23.047160406404206
50,21.00000003970332
51,21.000000039703316
52,20.999999943300676
53,2.9416469259409357e-13
54,21.000000039703327
55,21.000000039703327
56,20.999999943300676
57,6.37356834196509e-13
58,20.999955070714552
59,18.0
60,20.999999943300676
61,-0.00047289932149194904
62,20.548938997628383
63,18.496869289132633
64,20.999999943300722
65,18.386774999051486
66,-12.665551979521199
67,20.54893885085334
68,18.496868494992228
69,20.999999943300722
70,18.386774999051486
71,-12.665555968461597
72,20.64155477691932
73,18.49445259948874
74,20.999999943300722
75,18.37930000310887
76,-23.04716040640461
77,21.00000003970331
78,21.000000039703313
79,20.999999943300722
80,9.3152152651267e-13
81,21.000000039703316
82,21.000000039703323
83,20.999999943300722
84,8.498091120326073e-13
85,20.999955070714385
86,18.0
87,20.999999943300722
88,-0.00047289932149192324
89,20.548938997628337
90,18.49686928913263
91,20.999999943300665
92,18.386774999051486
93,-12.665551979520941
94,20.548939750454544
95,18.496873548607407
96,20.999999943300665
97,18.386774999051486
98,-12.665530311538799
99,20.64155477691927
100,18.49445259948874
101,20.999999943300665
102,18.37930000310887
103,-23.047160406404117
104,21.000000039703327
105,21.000000039703327
106,20.999999943300665
107,6.37356834196509e-13
108,21.000000039703323
109,21.000000039703316
110,20.999999943300665
111,4.0856207289000404e-13
112,20.999955070714496
113,18.0
114,20.999999943300665
115,-0.00047289932149194015
116,21.00000004442079
117,175319.7533809308
251,48.69993167313568
252,21.000000044420734
253,175319.66173211863
315,48.699906215132216
316,21.000000044420783
317,175319.73842791418
379,48.69992751951994
380,21.000000044420727
381,175319.64677910082
443,48.699902061516134
542,48.77356059405025
545,48.773535221925925
548,48.773556447265676
551,48.77353107514109
446,702339.0600181785
2,1, 6,15, 1, 8, 0.00,60.00,SummerDesignDay
7,19.3915
8,20.720784976336105
9,19.4608935407186
10,21.000000079581625
11,19.393774999051487
12,-7.7671499966361575
13,20.720785028085093
14,19.460893840467534
15,21.000000079581625
16,19.393774999051487
17,-7.767148458662401
18,20.7781231697575
19,19.456683542728314
20,21.000000079581625
21,19.38630000310887
22,-14.168124993302847
23,20.99999998494979
24,20.99999998494979