Program Version,EnergyPlus, Version 24.2.0-94a887817b, YMD=2025.06.26 13:07
1,5,Environment Title[],Latitude[deg],Longitude[deg],Time Zone[],Elevation[m]
2,8,Day of Simulation[],Month[],Day of Month[],DST Indicator[1=yes 0=no],Hour[],StartMinute[],EndMinute[],DayType
3,5,Cumulative Day of Simulation[],Month[],Day of Month[],DST Indicator[1=yes 0=no],DayType  ! When Daily Report Variables Requested
4,2,Cumulative Days of Simulation[],Month[]  ! When Monthly Report Variables Requested
5,1,Cumulative Days of Simulation[] ! When Run Period Report Variables Requested
6,1,Calendar Year of Simulation[] ! When Annual Report Variables Requested
7,1,Z1,Zone Air Temperature [C] !Hourly
142,1,Z2,Zone Air Temperature [C] !Hourly
205,1,Z3,Zone Air Temperature [C] !Hourly
268,1,Z4,Zone Air Temperature [C] !Hourly
393,1,Z1 RADIATOR,Baseboard Total Heating Rate [W] !Hourly
396,1,Z2 RADIATOR,Baseboard Total Heating Rate [W] !Hourly
399,1,Z3 RADIATOR,Baseboard Total Heating Rate [W] !Hourly
402,1,Z4 RADIATOR,Baseboard Total Heating Rate [W] !Hourly
403,1,HEAT PUMP,Heat Pump Load Side Heat Transfer Rate [W] !Hourly
417,1,HEAT PUMP,Heat Pump Electricity Rate [W] !Hourly
492,1,SUPPLY PUMP,Pump Electricity Rate [W] !Hourly
End of Data Dictionary
1,SUMMER DESIGN DAY IN SALFORD ENERGY HOUSE 1.0 (01-01:31-12) JUN HVAC Sizing Pass 1,  53.35,  -2.28,   0.00,  69.00
2,1, 6,15, 1, 1, 0.00,60.00,SummerDesignDay
7,21.39243450621888
142,21.39243449842958
205,21.39243450832835
268,21.39243450069017
393,0.0
396,0.0
399,0.0
402,0.0
403,0.0
417,0.0
492,0.0
2,1, 6,15, 1, 2, 0.00,60.00,SummerDesignDay
7,21.024796342311493
142,20.931930987900763
205,20.931930992524965
268,21.024796339735992
393,20.012012808364577
396,0.0
399,0.0
402,20.01201280988342
403,64.9057867394702
417,18.544510496991485
492,0.707563883693176
2,1, 6,15, 1, 3, 0.00,60.00,SummerDesignDay
7,20.999842867890766
142,20.540143418671924
205,20.540143420840906
268,20.99984286676559
393,51.387169586109
396,0.0
399,0.0
402,51.387169588171275
403,179.00958454282272
417,51.145595583663635
492,2.817355955951035
2,1, 6,15, 1, 4, 0.00,60.00,SummerDesignDay
7,20.999897220504433
142,20.255448053919554
205,20.25544805494281
268,20.99989722004478
393,65.70354494556994
396,0.0
399,0.0
402,65.70354494670093
403,132.42026104813704
417,37.83436029946773
492,2.817468603650209
2,1, 6,15, 1, 5, 0.00,60.00,SummerDesignDay
7,20.999990763181014
142,20.050617638826036
205,20.050617625491327
268,20.99999082159971
393,75.96166415017981
396,0.0
399,0.0
402,75.96166408474863
403,140.04838705083446
417,40.01382487166698
492,2.8174501589663596
2,1, 6,15, 1, 6, 0.00,60.00,SummerDesignDay
7,20.999949259987336
142,19.921998628980667
205,19.92199853557547
268,20.999949510927923
393,80.10850291503043
396,0.0
399,0.0
402,80.10850244086467
403,152.1965742879361
417,43.48473551083889
492,2.817420785193424
2,1, 6,15, 1, 7, 0.00,60.00,SummerDesignDay
7,20.99982187332791
142,19.894005515153484
205,19.894005292063213
268,20.999822271917576
393,75.74918915355549
396,0.0
399,0.0
402,75.74918833096078
403,153.34911151531264
417,43.814031861517904
492,2.817417998435063
2,1, 6,15, 1, 8, 0.00,60.00,SummerDesignDay
7,20.99995717074733
142,20.03078107345663
205,20.030780696982035
268,20.999957618203748
393,56.98297500527633
396,0.0
399,0.0
402,56.98297426107174
403,71.29288852544636
417,20.3693967215561
492,1.4163940131939452
2,1, 6,15, 1, 9, 0.00,60.00,SummerDesignDay
7,20.999935279704033
142,20.367351603510244
205,20.367351112206947
268,20.999935679839254
393,26.308455307268062
396,0.0
399,0.0
402,26.308454977134932
403,0.0
417,0.0
492,0.008018700380582399
2,1, 6,15, 1,10, 0.00,60.00,SummerDesignDay
7,21.040074023823962
142,20.837050916009563
205,20.837050351674275
268,21.04007429739129
393,1.708648039880606
396,0.0
399,0.0
402,1.7086480215522628
403,0.0
417,0.0
492,0.0005207836785251081
2,1, 6,15, 1,11, 0.00,60.00,SummerDesignDay
7,21.37620796708433
142,21.34198110518134
205,21.341980543109283
268,21.376208057267558
393,0.0
396,0.0
399,0.0
402,0.0
403,0.0
417,0.0
492,0.0
2,1, 6,15, 1,12, 0.00,60.00,SummerDesignDay
7,21.89454698421757
142,21.888626716117884
205,21.888626222997445
268,21.894546882174335
393,0.0
396,0.0
399,0.0
402,0.0
403,0.0
417,0.0
492,0.0
2,1, 6,15, 1,13, 0.00,60.00,SummerDesignDay
7,22.45118082494007
142,22.450163069953298
205,22.45016270052886
268,22.451180543035512
393,0.0
396,0.0
399,0.0
402,0.0
403,0.0
417,0.0
492,0.0
2,1, 6,15, 1,14, 0.00,60.00,SummerDesignDay
7,22.998678899660618
142,22.99850393357098
205,22.998503728811468
268,22.998678469127476
393,0.0
396,0.0
399,0.0
402,0.0
403,0.0
417,0.0
492,0.0
2,1, 6,15, 1,15, 0.00,60.00,SummerDesignDay
7,23.48076863654772
142,23.480738263671316
205,23.48073824773288
268,23.48076810260951
393,0.0
396,0.0
399,0.0
402,0.0
403,0.0
417,0.0
492,0.0
2,1, 6,15, 1,16, 0.00,60.00,SummerDesignDay
7,23.828942196288974
142,23.828936590794022
205,23.828936771348815
268,23.8289416071842
393,0.0
396,0.0
399,0.0
402,0.0
403,0.0
417,0.0
492,0.0
2,1, 6,15, 1,17, 0.00,60.00,SummerDesignDay
7,24.004210622372014
142,24.004209225688854
205,24.004209582308558
268,24.004210045627175
393,0.0
396,0.0
399,0.0
402,0.0
403,0.0
417,0.0
492,0.0
2,1, 6,15, 1,18, 0.00,60.00,SummerDesignDay
7,24.018918003008906
142,24.018917326868195
205,24.01891780964771
268,24.018917497372897
393,0.0
396,0.0
399,0.0
402,0.0
403,0.0
417,0.0
492,0.0
2,1, 6,15, 1,19, 0.00,60.00,SummerDesignDay
7,23.880035424951274
142,23.880034921596785
205,23.880035426483506
268,23.880035034323114
393,0.0
396,0.0
399,0.0
402,0.0
403,0.0
417,0.0
492,0.0
2,1, 6,15, 1,20, 0.00,60.00,SummerDesignDay
7,23.5906222108487
142,23.59062186619944
205,23.590622275662433
268,23.590621968262106
393,0.0
396,0.0
399,0.0
402,0.0
403,0.0
417,0.0
492,0.0
2,1, 6,15, 1,21, 0.00,60.00,SummerDesignDay
7,23.219438963657247
142,23.219438793792946
205,23.219439004094887
268,23.219438846648462
393,0.0
396,0.0
399,0.0
402,0.0
403,0.0
417,0.0
492,0.0
2,1, 6,15, 1,22, 0.00,60.00,SummerDesignDay
7,22.796561439622906
142,22.79656136153168
205,22.7965614590993
268,22.796561385140905
393,0.0
396,0.0
399,0.0
402,0.0
403,0.0
417,0.0
492,0.0
2,1, 6,15, 1,23, 0.00,60.00,SummerDesignDay
7,22.338227314232277
142,22.338227278105297
205,22.33822732358558
268,22.338227288830833
393,0.0
396,0.0
399,0.0
402,0.0
403,0.0
417,0.0
492,0.0
2,1, 6,15, 1,24, 0.00,60.00,SummerDesignDay
7,21.867890688757875
142,21.867890672002684
205,21.867890693211884
268,21.867890676912012
393,0.0
396,0.0
399,0.0
402,0.0
403,0.0
417,0.0
492,0.0
1,WINTER DESIGN DAY IN (MID) UK HVAC Sizing Pass 1,  53.35,  -2.28,   0.00,  69.00
2,1, 1,15, 0, 1, 0.00,60.00,WinterDesignDay
7,19.706371630248253
142,17.999775921946778
205,17.999775921946778
268,19.706371630248253
393,464.33417723722613
396,345.41428941576214
399,345.41428941576214
402,464.33417723722613
403,989.792118819663
417,282.7977482341894
492,5.681604462858754
2,1, 1,15, 0, 2, 0.00,60.00,WinterDesignDay
7,19.713941363757787
142,17.999729829550695
205,17.999729829550695
268,19.713941363757787
393,464.180695578644
396,345.4188736517858
399,345.4188736517858
402,464.180695578644
403,757.4382291916771
417,216.41092262619347
492,5.681887580023769
2,1, 1,15, 0, 3, 0.00,60.00,WinterDesignDay
7,19.705955036151042
142,17.99981652615804
205,17.99981652615804
268,19.705955036151042
393,462.72628846118084
396,345.39269937449575
399,345.39269937449575
402,462.72628846118084
403,555.9709003529211
417,158.84882867226318
492,2.8164447683741067
2,1, 1,15, 0, 4, 0.00,60.00,WinterDesignDay
7,19.708309052954387
142,17.99989488072629
205,17.99989488072629
268,19.708309052954387
393,464.29583467261085
396,345.41572100035614
399,345.41572100035614
402,464.29583467261085
403,1016.0752364490253
417,290.3072104140072
492,5.681694876824528
2,1, 1,15, 0, 5, 0.00,60.00,WinterDesignDay
7,19.711184737222514
142,17.99959659639468
205,17.99959659639468
268,19.711184737222514
393,464.24099861633
396,345.41970978763675
399,345.41970978763675
402,464.24099861633
403,821.8396586420635
417,234.81133104058955
492,5.681829024303688
2,1, 1,15, 0, 6, 0.00,60.00,WinterDesignDay
7,19.70671621061677
142,18.000131445610865
205,18.000131445610865
268,19.70671621061677
393,462.70215087366745
396,345.5007070138055
399,345.5007070138055
402,462.70215087366745
403,526.1524560481562
417,150.32927315661607
492,2.8165168330784085
2,1, 1,15, 0, 7, 0.00,60.00,WinterDesignDay
7,19.70592822718143
142,17.999822254463357
205,17.999822254463357
268,19.70592822718143
393,463.5261578516578
396,345.4077575449105
399,345.4077575449105
402,463.5261578516578
403,830.9764041436958
417,237.4218297553417
492,4.249058233077813
2,1, 1,15, 0, 8, 0.00,60.00,WinterDesignDay
7,19.70700178529018
142,17.99982055843005
205,17.99982055843005
268,19.70700178529018
393,464.32301285064625
396,345.41682520436
399,345.41682520436
402,464.32301285064625
403,986.6493392609605
417,281.89981121741727
492,5.681608613000119
2,1, 1,15, 0, 9, 0.00,60.00,WinterDesignDay
7,19.724893618958735
142,17.999348233188968
205,17.999348233188968
268,19.724893618958735
393,465.6067014183209
396,345.3405882395778
399,345.3405882395778
402,465.6067014183209
403,823.5381549029623
417,235.29661568656067
492,8.547008547008547
2,1, 1,15, 0,10, 0.00,60.00,WinterDesignDay
7,19.723079496738556
142,17.99979697427293
205,17.99979697427293
268,19.723079496738556
393,464.02244006771645
396,345.20140996719556
399,345.20140996719556
402,464.02244006771645
403,604.0813614343667
417,172.59467469553334
492,5.68189952592334
2,1, 1,15, 0,11, 0.00,60.00,WinterDesignDay
7,19.717131935926783
142,17.999769157279765
205,17.999769157279765
268,19.717131935926783
393,464.1522441194861
396,345.2033929932985
399,345.2033929932985
402,464.1522441194861
403,846.0188539461442
417,241.7196725560412
492,5.681825376906445
2,1, 1,15, 0,12, 0.00,60.00,WinterDesignDay
7,19.711740916184283
142,17.99929392249438
205,17.99929392249438
268,19.711740916184283
393,463.43723623046094
396,345.1389194535289
399,345.1389194535289
402,463.43723623046094
403,747.1351391312065
417,213.46718260891615
492,4.249169115134149
2,1, 1,15, 0,13, 0.00,60.00,WinterDesignDay
7,19.705311807251228
142,17.99966862893621
205,17.99966862893621
268,19.705311807251228
393,462.7437549113051
396,345.28634386902326
399,345.28634386902326
402,462.7437549113051
403,635.187028119818
417,181.48200803423373
492,2.8162533367919496
2,1, 1,15, 0,14, 0.00,60.00,WinterDesignDay
7,19.705920691853148
142,17.999630799384896
205,17.999630799384896
268,19.705920691853148
393,463.5270435813879
396,345.35269598532454
399,345.35269598532454
402,463.5270435813879
403,859.0154718078647
417,245.43299194510422
492,4.2490259808267705
2,1, 1,15, 0,15, 0.00,60.00,WinterDesignDay
7,19.7127903538288
142,17.99984377217819
205,17.99984377217819
268,19.7127903538288
393,465.0291704251199
396,345.48488579862413
399,345.48488579862413
402,465.0291704251199
403,1014.0962389723147
417,289.74178256351854
492,7.114320350764093
2,1, 1,15, 0,16, 0.00,60.00,WinterDesignDay
7,19.714295522130158
142,17.99981707274685
205,17.99981707274685
268,19.714295522130158
393,463.36766382180207
396,345.353476562421
399,345.353476562421
402,463.36766382180207
403,556.3854262114571
417,158.9672646318449
492,4.249242940092359
2,1, 1,15, 0,17, 0.00,60.00,WinterDesignDay
7,19.711368550867498
142,17.999726786858513
205,17.999726786858513
268,19.711368550867498
393,464.2508815285159
396,345.3108661647602
399,345.3108661647602
402,464.2508815285159
403,970.4641879192377
417,277.27548226263934
492,5.681738840051111
2,1, 1,15, 0,18, 0.00,60.00,WinterDesignDay
7,19.713923110136054
142,17.999676270862643
205,17.999676270862643
268,19.713923110136054
393,464.1890051235621
396,345.3116530594528
399,345.3116530594528
402,464.1890051235621
403,796.0907704844522
417,227.45450585270058
492,5.6819070752245455
2,1, 1,15, 0,19, 0.00,60.00,WinterDesignDay
7,19.717340680522728
142,17.999475727145104
205,17.999475727145104
268,19.717340680522728
393,464.13188207870985
396,345.20265381508
399,345.20265381508
402,464.13188207870985
403,697.2237626870655
417,199.20678933916153
492,5.68194290267587
2,1, 1,15, 0,20, 0.00,60.00,WinterDesignDay
7,19.70894064121981
142,17.99994180017061
205,17.99994180017061
268,19.70894064121981
393,463.4891977935258
396,345.3530083617286
399,345.3530083617286
402,463.4891977935258
403,830.3479242942693
417,237.24226408407696
492,4.249027870748602
2,1, 1,15, 0,21, 0.00,60.00,WinterDesignDay
7,19.716270172406414
142,17.99944062963008
205,17.99944062963008
268,19.716270172406414
393,464.1535735528694
396,345.2026054784934
399,345.2026054784934
402,464.1535735528694
403,738.8322974121473
417,211.09494211775637
492,5.681930230324807
2,1, 1,15, 0,22, 0.00,60.00,WinterDesignDay
7,19.71516927200809
142,17.999898827414253
205,17.999898827414253
268,19.71516927200809
393,464.176917307429
396,345.3102304167335
399,345.3102304167335
402,464.176917307429
403,801.3286905421865
417,228.95105444062474
492,5.6818632690739586
2,1, 1,15, 0,23, 0.00,60.00,WinterDesignDay
7,19.71983131545136
142,17.999824593717666
205,17.999824593717666
268,19.71983131545136
393,464.89246183686805
396,345.26991867784426
399,345.26991867784426
402,464.89246183686805
403,876.7289672253993
417,250.49399063582837
492,7.114485892886224
2,1, 1,15, 0,24, 0.00,60.00,WinterDesignDay
7,19.709988485014584
142,17.999622537720704
205,17.999622537720704
268,19.709988485014584
393,462.6651522141565
396,345.17773596346507
399,345.17773596346507
402,462.6651522141565
403,538.4830019438531
417,153.8522862696723
492,2.8164870323857394
1,SUMMER DESIGN DAY IN SALFORD ENERGY HOUSE 1.0 (01-01:31-12) JUN,  53.35,  -2.28,   0.00,  69.00
2,1, 6,15, 1, 1, 0.00,60.00,SummerDesignDay
7,21.39243450621888
142,21.39243449842958
205,21.39243450832835
268,21.39243450069017
393,0.0
396,0.0
399,0.0
402,0.0
403,0.0
417,0.0
492,0.0
2,1, 6,15, 1, 2, 0.00,60.00,SummerDesignDay
7,21.024796342311493
142,20.931930987900763
205,20.931930992524965
268,21.024796339735992
393,20.012012808364577
396,0.0
399,0.0
402,20.01201280988342
403,64.9057867394702
417,18.544510496991485
492,0.707563883693176
2,1, 6,15, 1, 3, 0.00,60.00,SummerDesignDay
7,20.999842867890766
142,20.540143418671924
205,20.540143420840906
268,20.99984286676559
393,51.387169586109
396,0.0
399,0.0
402,51.387169588171275
403,179.00958454282272
417,51.145595583663635
492,2.817355955951035
2,1, 6,15, 1, 4, 0.00,60.00,SummerDesignDay
7,20.999897220504433
142,20.255448053919554
205,20.25544805494281
268,20.99989722004478
393,65.70354494556994
396,0.0
399,0.0
402,65.70354494670093
403,132.42026104813704
417,37.83436029946773
492,2.817468603650209
2,1, 6,15, 1, 5, 0.00,60.00,SummerDesignDay
7,20.999990763181014
142,20.050617638826036
205,20.050617625491327
268,20.99999082159971
393,75.96166415017981
396,0.0
399,0.0
402,75.96166408474863
403,140.04838705083446
417,40.01382487166698
492,2.8174501589663596
2,1, 6,15, 1, 6, 0.00,60.00,SummerDesignDay
7,20.999949259987336
142,19.921998628980667
205,19.92199853557547
268,20.999949510927923
393,80.10850291503043
396,0.0
399,0.0
402,80.10850244086467
403,152.1965742879361
417,43.48473551083889
492,2.817420785193424
2,1, 6,15, 1, 7, 0.00,60.00,SummerDesignDay
7,20.99982187332791
142,19.894005515153484
205,19.894005292063213
268,20.999822271917576
393,75.74918915355549
396,0.0
399,0.0
402,75.74918833096078
403,153.34911151531264
417,43.814031861517904
492,2.817417998435063
2,1, 6,15, 1, 8, 0.00,60.00,SummerDesignDay
7,20.99995717074733
142,20.03078107345663
205,20.030780696982035
268,20.999957618203748
393,56.98297500527633
396,0.0
399,0.0
402,56.98297426107174
403,71.29288852544636
417,20.3693967215561
492,1.4163940131939452
2,1, 6,15, 1, 9, 0.00,60.00,SummerDesignDay
7,20.999935279704033
142,20.367351603510244
205,20.367351112206947
268,20.999935679839254
393,26.308455307268062
396,0.0
399,0.0
402,26.308454977134932
403,0.0
417,0.0
492,0.008018700380582399
2,1, 6,15, 1,10, 0.00,60.00,SummerDesignDay
7,21.040074023823962
142,20.837050916009563
205,20.837050351674275
268,21.04007429739129
393,1.708648039880606
396,0.0
399,0.0
402,1.7086480215522628
403,0.0
417,0.0
492,0.0005207836785251081
2,1, 6,15, 1,11, 0.00,60.00,SummerDesignDay
7,21.37620796708433
142,21.34198110518134
205,21.341980543109283
268,21.376208057267558
393,0.0
396,0.0
399,0.0
402,0.0
403,0.0
417,0.0
492,0.0
2,1, 6,15, 1,12, 0.00,60.00,SummerDesignDay
7,21.89454698421757
142,21.888626716117884
205,21.888626222997445
268,21.894546882174335
393,0.0
396,0.0
399,0.0
402,0.0
403,0.0
417,0.0
492,0.0
2,1, 6,15, 1,13, 0.00,60.00,SummerDesignDay
7,22.45118082494007
142,22.450163069953298
205,22.45016270052886
268,22.451180543035512
393,0.0
396,0.0
399,0.0
402,0.0
403,0.0
417,0.0
492,0.0
2,1, 6,15, 1,14, 0.00,60.00,SummerDesignDay
7,22.998678899660618
142,22.99850393357098
205,22.998503728811468
268,22.998678469127476
393,0.0
396,0.0
399,0.0
402,0.0
403,0.0
417,0.0
492,0.0
2,1, 6,15, 1,15, 0.00,60.00,SummerDesignDay
7,23.48076863654772
142,23.480738263671316
205,23.48073824773288
268,23.48076810260951
393,0.0
396,0.0
399,0.0
402,0.0
403,0.0
417,0.0
492,0.0
2,1, 6,15, 1,16, 0.00,60.00,SummerDesignDay
7,23.828942196288974
142,23.828936590794022
205,23.828936771348815
268,23.8289416071842
393,0.0
396,0.0
399,0.0
402,0.0
403,0.0
417,0.0
492,0.0
2,1, 6,15, 1,17, 0.00,60.00,SummerDesignDay
7,24.004210622372014
142,24.004209225688854
205,24.004209582308558
268,24.004210045627175
393,0.0
396,0.0
399,0.0
402,0.0
403,0.0
417,0.0
492,0.0
2,1, 6,15, 1,18, 0.00,60.00,SummerDesignDay
7,24.018918003008906
142,24.018917326868195
205,24.01891780964771
268,24.018917497372897
393,0.0
396,0.0
399,0.0
402,0.0
403,0.0
417,0.0
492,0.0
2,1, 6,15, 1,19, 0.00,60.00,SummerDesignDay
7,23.880035424951274
142,23.880034921596785
205,23.880035426483506
268,23.880035034323114
393,0.0
396,0.0
399,0.0
402,0.0
403,0.0
417,0.0
492,0.0
2,1, 6,15, 1,20, 0.00,60.00,SummerDesignDay
7,23.5906222108487
142,23.59062186619944
205,23.590622275662433
268,23.590621968262106
393,0.0
396,0.0
399,0.0
402,0.0
403,0.0
417,0.0
492,0.0
2,1, 6,15, 1,21, 0.00,60.00,SummerDesignDay
7,23.219438963657247
142,23.219438793792946
205,23.219439004094887
268,23.219438846648462
393,0.0
396,0.0
399,0.0
402,0.0
403,0.0
417,0.0
492,0.0
2,1, 6,15, 1,22, 0.00,60.00,SummerDesignDay
7,22.796561439622906
142,22.79656136153168
205,22.7965614590993
268,22.796561385140905
393,0.0
396,0.0
399,0.0
402,0.0
403,0.0
417,0.0
492,0.0
2,1, 6,15, 1,23, 0.00,60.00,SummerDesignDay
7,22.338227314232277
142,22.338227278105297
205,22.33822732358558
268,22.338227288830833
393,0.0
396,0.0
399,0.0
402,0.0
403,0.0
417,0.0
492,0.0
2,1, 6,15, 1,24, 0.00,60.00,SummerDesignDay
7,21.867890688757875
142,21.867890672002684
205,21.867890693211884
268,21.867890676912012
393,0.0
396,0.0
399,0.0
402,0.0
403,0.0
417,0.0
492,0.0
1,WINTER DESIGN DAY IN (MID) UK,  53.35,  -2.28,   0.00,  69.00
2,1, 1,15, 0, 1, 0.00,60.00,WinterDesignDay
7,19.706371630248253
142,17.999775921946778
205,17.999775921946778
268,19.706371630248253
393,464.33417723722613
396,345.41428941576214
399,345.41428941576214
402,464.33417723722613
403,989.792118819663
417,282.7977482341894
492,5.681604462858754
2,1, 1,15, 0, 2, 0.00,60.00,WinterDesignDay
7,19.713941363757787
142,17.999729829550695
205,17.999729829550695
268,19.713941363757787
393,464.180695578644
396,345.4188736517858
399,345.4188736517858
402,464.180695578644
403,757.4382291916771
417,216.41092262619347
492,5.681887580023769
2,1, 1,15, 0, 3, 0.00,60.00,WinterDesignDay
7,19.705955036151042
142,17.99981652615804
205,17.99981652615804
268,19.705955036151042
393,462.72628846118084
396,345.39269937449575
399,345.39269937449575
402,462.72628846118084
403,555.9709003529211
417,158.84882867226318
492,2.8164447683741067
2,1, 1,15, 0, 4, 0.00,60.00,WinterDesignDay
7,19.708309052954387
142,17.99989488072629
205,17.99989488072629
268,19.708309052954387
393,464.29583467261085
396,345.41572100035614
399,345.41572100035614
402,464.29583467261085
403,1016.0752364490253
417,290.3072104140072
492,5.681694876824528
2,1, 1,15, 0, 5, 0.00,60.00,WinterDesignDay
7,19.711184737222514
142,17.99959659639468
205,17.99959659639468
268,19.711184737222514
393,464.24099861633
396,345.41970978763675
399,345.41970978763675
402,464.24099861633
403,821.8396586420635
417,234.81133104058955
492,5.681829024303688
2,1, 1,15, 0, 6, 0.00,60.00,WinterDesignDay
7,19.70671621061677
142,18.000131445610865
205,18.000131445610865
268,19.70671621061677
393,462.70215087366745
396,345.5007070138055
399,345.5007070138055
402,462.70215087366745
403,526.1524560481562
417,150.32927315661607
492,2.8165168330784085
2,1, 1,15, 0, 7, 0.00,60.00,WinterDesignDay
7,19.70592822718143
142,17.999822254463357
205,17.999822254463357
268,19.70592822718143
393,463.5261578516578
396,345.4077575449105
399,345.4077575449105
402,463.5261578516578
403,830.9764041436958
417,237.4218297553417
492,4.249058233077813
2,1, 1,15, 0, 8, 0.00,60.00,WinterDesignDay
7,19.70700178529018
142,17.99982055843005
205,17.99982055843005
268,19.70700178529018
393,464.32301285064625
396,345.41682520436
399,345.41682520436
402,464.32301285064625
403,986.6493392609605
417,281.89981121741727
492,5.681608613000119
2,1, 1,15, 0, 9, 0.00,60.00,WinterDesignDay
7,19.724893618958735
142,17.999348233188968
205,17.999348233188968
268,19.724893618958735
393,465.6067014183209
396,345.3405882395778
399,345.3405882395778
402,465.6067014183209
403,823.5381549029623
417,235.29661568656067
492,8.547008547008547
2,1, 1,15, 0,10, 0.00,60.00,WinterDesignDay
7,19.723079496738556
142,17.99979697427293
205,17.99979697427293
268,19.723079496738556
393,464.02244006771645
396,345.20140996719556
399,345.20140996719556
402,464.02244006771645
403,604.0813614343667
417,172.59467469553334
492,5.68189952592334
2,1, 1,15, 0,11, 0.00,60.00,WinterDesignDay
7,19.717131935926783
142,17.999769157279765
205,17.999769157279765
268,19.717131935926783
393,464.1522441194861
396,345.2033929932985
399,345.2033929932985
402,464.1522441194861
403,846.0188539461442
417,241.7196725560412
492,5.681825376906445
2,1, 1,15, 0,12, 0.00,60.00,WinterDesignDay
7,19.711740916184283
142,17.99929392249438
205,17.99929392249438
268,19.711740916184283
393,463.43723623046094
396,345.1389194535289
399,345.1389194535289
402,463.43723623046094
403,747.1351391312065
417,213.46718260891615
492,4.249169115134149
2,1, 1,15, 0,13, 0.00,60.00,WinterDesignDay
7,19.705311807251228
142,17.99966862893621
205,17.99966862893621
268,19.705311807251228
393,462.7437549113051
396,345.28634386902326
399,345.28634386902326
402,462.7437549113051
403,635.187028119818
417,181.48200803423373
492,2.8162533367919496
2,1, 1,15, 0,14, 0.00,60.00,WinterDesignDay
7,19.705920691853148
142,17.999630799384896
205,17.999630799384896
268,19.705920691853148
393,463.5270435813879
396,345.35269598532454
399,345.35269598532454
402,463.5270435813879
403,859.0154718078647
417,245.43299194510422
492,4.2490259808267705
2,1, 1,15, 0,15, 0.00,60.00,WinterDesignDay
7,19.7127903538288
142,17.99984377217819
205,17.99984377217819
268,19.7127903538288
393,465.0291704251199
396,345.48488579862413
399,345.48488579862413
402,465.0291704251199
403,1014.0962389723147
417,289.74178256351854
492,7.114320350764093
2,1, 1,15, 0,16, 0.00,60.00,WinterDesignDay
7,19.714295522130158
142,17.99981707274685
205,17.99981707274685
268,19.714295522130158
393,463.36766382180207
396,345.353476562421
399,345.353476562421
402,463.36766382180207
403,556.3854262114571
417,158.9672646318449
492,4.249242940092359
2,1, 1,15, 0,17, 0.00,60.00,WinterDesignDay
7,19.711368550867498
142,17.999726786858513
205,17.999726786858513
268,19.711368550867498
393,464.2508815285159
396,345.3108661647602
399,345.3108661647602
402,464.2508815285159
403,970.4641879192377
417,277.27548226263934
492,5.681738840051111
2,1, 1,15, 0,18, 0.00,60.00,WinterDesignDay
7,19.713923110136054
142,17.999676270862643
205,17.999676270862643
268,19.713923110136054
393,464.1890051235621
396,345.3116530594528
399,345.3116530594528
402,464.1890051235621
403,796.0907704844522
417,227.45450585270058
492,5.6819070752245455
2,1, 1,15, 0,19, 0.00,60.00,WinterDesignDay
7,19.717340680522728
142,17.999475727145104
205,17.999475727145104
268,19.717340680522728
393,464.13188207870985
396,345.20265381508
399,345.20265381508
402,464.13188207870985
403,697.2237626870655
417,199.20678933916153
492,5.68194290267587
2,1, 1,15, 0,20, 0.00,60.00,WinterDesignDay
7,19.70894064121981
142,17.99994180017061
205,17.99994180017061
268,19.70894064121981
393,463.4891977935258
396,345.3530083617286
399,345.3530083617286
402,463.4891977935258
403,830.3479242942693
417,237.24226408407696
492,4.249027870748602
2,1, 1,15, 0,21, 0.00,60.00,WinterDesignDay
7,19.716270172406414
142,17.99944062963008
205,17.99944062963008
268,19.716270172406414
393,464.1535735528694
396,345.2026054784934
399,345.2026054784934
402,464.1535735528694
403,738.8322974121473
417,211.09494211775637
492,5.681930230324807
2,1, 1,15, 0,22, 0.00,60.00,WinterDesignDay
7,19.71516927200809
142,17.999898827414253
205,17.999898827414253
268,19.71516927200809
393,464.176917307429
396,345.3102304167335
399,345.3102304167335
402,464.176917307429
403,801.3286905421865
417,228.95105444062474
492,5.6818632690739586
2,1, 1,15, 0,23, 0.00,60.00,WinterDesignDay
7,19.71983131545136
142,17.999824593717666
205,17.999824593717666
268,19.71983131545136
393,464.89246183686805
396,345.26991867784426
399,345.26991867784426
402,464.89246183686805
403,876.7289672253993
417,250.49399063582837
492,7.114485892886224
2,1, 1,15, 0,24, 0.00,60.00,WinterDesignDay
7,19.709988485014584
142,17.999622537720704
205,17.999622537720704
268,19.709988485014584
393,462.6651522141565
396,345.17773596346507
399,345.17773596346507
402,462.6651522141565
403,538.4830019438531
417,153.8522862696723
492,2.8164870323857394
End of Data
 Number of Records Written=        1056
