Program Version,EnergyPlus, Version 24.2.0-94a887817b, YMD=2026.05.15 14:38
1,5,Environment Title[],Latitude[deg],Longitude[deg],Time Zone[],Elevation[m]
2,8,Day of Simulation[],Month[],Day of Month[],DST Indicator[1=yes 0=no],Hour[],StartMinute[],EndMinute[],DayType
3,5,Cumulative Day of Simulation[],Month[],Day of Month[],DST Indicator[1=yes 0=no],DayType  ! When Daily Report Variables Requested
4,2,Cumulative Days of Simulation[],Month[]  ! When Monthly Report Variables Requested
5,1,Cumulative Days of Simulation[] ! When Run Period Report Variables Requested
6,1,Calendar Year of Simulation[] ! When Annual Report Variables Requested
7,1,Environment,Site Outdoor Air Drybulb Temperature [C] !Hourly
8,1,Z1,Zone Air Temperature [C] !Hourly
143,1,Z2,Zone Air Temperature [C] !Hourly
206,1,Z3,Zone Air Temperature [C] !Hourly
269,1,Z4,Zone Air Temperature [C] !Hourly
332,1,Z5,Zone Air Temperature [C] !Hourly
395,1,Z6,Zone Air Temperature [C] !Hourly
458,1,Z7,Zone Air Temperature [C] !Hourly
521,1,Z8,Zone Air Temperature [C] !Hourly
584,1,HOT WATER LOOP,Plant Supply Side Outlet Temperature [C] !Hourly
647,1,Z1 RADIATOR,Baseboard Total Heating Rate [W] !Hourly
648,1,Z1 RADIATOR,Baseboard Hot Water Mass Flow Rate [kg/s] !Hourly
651,1,Z2 RADIATOR,Baseboard Total Heating Rate [W] !Hourly
652,1,Z2 RADIATOR,Baseboard Hot Water Mass Flow Rate [kg/s] !Hourly
655,1,Z3 RADIATOR,Baseboard Total Heating Rate [W] !Hourly
656,1,Z3 RADIATOR,Baseboard Hot Water Mass Flow Rate [kg/s] !Hourly
659,1,Z4 RADIATOR,Baseboard Total Heating Rate [W] !Hourly
660,1,Z4 RADIATOR,Baseboard Hot Water Mass Flow Rate [kg/s] !Hourly
663,1,Z5 RADIATOR,Baseboard Total Heating Rate [W] !Hourly
664,1,Z5 RADIATOR,Baseboard Hot Water Mass Flow Rate [kg/s] !Hourly
667,1,Z6 RADIATOR,Baseboard Total Heating Rate [W] !Hourly
668,1,Z6 RADIATOR,Baseboard Hot Water Mass Flow Rate [kg/s] !Hourly
671,1,Z7 RADIATOR,Baseboard Total Heating Rate [W] !Hourly
672,1,Z7 RADIATOR,Baseboard Hot Water Mass Flow Rate [kg/s] !Hourly
675,1,Z8 RADIATOR,Baseboard Total Heating Rate [W] !Hourly
676,1,Z8 RADIATOR,Baseboard Hot Water Mass Flow Rate [kg/s] !Hourly
677,1,HEAT PUMP,Heat Pump Load Side Heat Transfer Rate [W] !Hourly
691,1,HEAT PUMP,Heat Pump Load Side Inlet Temperature [C] !Hourly
692,1,HEAT PUMP,Heat Pump Load Side Outlet Temperature [C] !Hourly
693,1,HEAT PUMP,Heat Pump Electricity Rate [W] !Hourly
768,1,SUPPLY PUMP,Pump Electricity Rate [W] !Hourly
769,1,SUPPLY PUMP,Pump Fluid Heat Gain Rate [W] !Hourly
770,1,SUPPLY PUMP,Pump Mass Flow Rate [kg/s] !Hourly
798,1,Baseboard Total Heating Rate All Zones,PythonPlugin:OutputVariable [W] !Hourly
End of Data Dictionary
1,WINTER DESIGN DAY IN (MID) UK,  53.35,  -2.28,   0.00,  69.00
2,1, 1,15, 0, 1, 0.00,60.00,WinterDesignDay
7,-3.0
8,20.99966596831149
143,20.99966596831149
206,18.00004632943389
269,18.00004632943389
332,20.99973691833453
395,20.99973691833453
458,17.999096246858805
521,17.999096246858805
584,46.032
647,324.99166523198147
648,0.02361984375
651,324.99166523198147
652,0.02361984375
655,150.61071938131457
656,0.0013997277832031253
659,150.61071938131457
660,0.0013997277832031253
663,511.9300761852286
664,0.020739375000000004
667,511.9300761852286
668,0.020739375000000004
671,331.1165050510449
672,0.0034421601562500004
675,331.1165050510449
676,0.0034421601562500004
677,2635.190165293191
691,41.182057081138446
692,46.032
693,1014.0908257079577
768,1.9660660158261927
769,1.9660660158261927
770,0.12998674
798,2637.2979316991396
2,1, 1,15, 0, 2, 0.00,60.00,WinterDesignDay
7,-3.0
8,21.000154257263407
143,21.000154257263407
206,18.000054052560536
269,18.000054052560536
332,20.99972392172514
395,20.99972392172514
458,17.999425563682095
521,17.999425563682095
584,46.032
647,324.97851457853307
648,0.02361984375
651,324.97851457853307
652,0.02361984375
655,150.61065232842333
656,0.0013997277832031253
659,150.61065232842333
660,0.0013997277832031253
663,511.93031233300434
664,0.020739375000000004
667,511.93031233300434
668,0.020739375000000004
671,331.22238495079733
672,0.0034439604492187506
675,331.22238495079733
676,0.0034439604492187506
677,2635.4270224953416
691,41.18162115665547
692,46.032
693,1014.1819746196634
768,1.9660656701437706
769,1.9660656701437706
770,0.12998674
798,2637.4837283815164
2,1, 1,15, 0, 3, 0.00,60.00,WinterDesignDay
7,-3.0
8,20.999737878858053
143,20.999737878858053
206,18.00003811748152
269,18.00003811748152
332,20.999740080944232
395,20.999740080944232
458,17.999510795580093
521,17.999510795580093
584,46.032
647,324.9883305814129
648,0.02361984375
651,324.9883305814129
652,0.02361984375
655,150.61089613082163
656,0.0013997277832031253
659,150.61089613082163
660,0.0013997277832031253
663,511.930092318941
664,0.020739375000000004
667,511.930092318941
668,0.020739375000000004
671,331.22091117794787
672,0.0034439604492187506
675,331.22091117794787
676,0.0034439604492187506
677,2635.3649689967874
691,41.181735363185936
692,46.032
693,1014.158094793298
768,1.9660657607080259
769,1.9660657607080259
770,0.12998674
798,2637.500460418247
2,1, 1,15, 0, 4, 0.00,60.00,WinterDesignDay
7,-3.0
8,20.999497445062044
143,20.999497445062044
206,18.000056086782052
269,18.000056086782052
332,20.999736747512117
395,20.999736747512117
458,17.999440936774956
521,17.999440936774956
584,46.032
647,324.8368023208136
648,0.023504625
651,324.8368023208136
652,0.023504625
655,150.6106601983888
656,0.0013997277832031253
659,150.6106601983888
660,0.0013997277832031253
663,511.9300245563997
664,0.020739375000000004
667,511.9300245563997
668,0.020739375000000004
671,331.22414185859367
672,0.0034439604492187506
675,331.22414185859367
676,0.0034439604492187506
677,2635.145448104
691,41.18213938101111
692,46.032
693,1014.0736173516474
768,1.9660660810887303
769,1.9660660810887303
770,0.12998674
798,2637.2032578683916
2,1, 1,15, 0, 5, 0.00,60.00,WinterDesignDay
7,-3.0
8,21.00034214423544
143,21.00034214423544
206,17.999806532823822
269,17.999806532823822
332,20.999734711566035
395,20.999734711566035
458,17.998893752750227
521,17.998893752750227
584,46.032
647,325.1304412243208
648,0.0237350625
651,325.1304412243208
652,0.0237350625
655,150.5357795017662
656,0.0013988276367187503
659,150.5357795017662
660,0.0013988276367187503
663,511.9301222257768
664,0.020739375000000004
667,511.9301222257768
668,0.020739375000000004
671,331.12071589304037
672,0.0034421601562500004
675,331.12071589304037
676,0.0034421601562500004
677,2635.3184181725023
691,41.18182103777731
692,46.032
693,1014.140180805739
768,1.9660658286466859
769,1.9660658286466859
770,0.12998674
798,2637.4341176898088
2,1, 1,15, 0, 6, 0.00,60.00,WinterDesignDay
7,-3.0
8,20.99957373112416
143,20.99957373112416
206,18.000037208318787
269,18.000037208318787
332,20.999736439416527
395,20.999736439416527
458,17.999428630623576
521,17.999428630623576
584,46.032
647,324.8360314592787
648,0.023504625
651,324.8360314592787
652,0.023504625
655,150.61072696199327
656,0.001399727783203125
659,150.61072696199327
660,0.001399727783203125
663,511.93013614138476
664,0.020739375000000004
667,511.93013614138476
668,0.020739375000000004
671,331.22202573098366
672,0.0034439604492187506
675,331.22202573098366
676,0.0034439604492187506
677,2635.1392502051426
691,41.18215078795095
692,46.032
693,1014.0712322363518
768,1.9660660901343272
769,1.9660660901343272
770,0.12998674
798,2637.1978405872806
2,1, 1,15, 0, 7, 0.00,60.00,WinterDesignDay
7,-3.0
8,20.99988923485614
143,20.99988923485614
206,18.000050600375573
269,18.000050600375573
332,20.999730132963236
395,20.999730132963236
458,17.99945215297709
521,17.99945215297709
584,46.032
647,324.98409685503566
648,0.02361984375
651,324.98409685503566
652,0.02361984375
655,150.61066759925518
656,0.001399727783203125
659,150.61066759925518
660,0.001399727783203125
663,511.93015302236677
664,0.020739375000000004
667,511.93015302236677
668,0.020739375000000004
671,331.22222710010107
672,0.0034439604492187506
675,331.22222710010107
676,0.0034439604492187506
677,2635.3991863925285
691,41.181672387686724
692,46.032
693,1014.1712625515712
768,1.9660657107699397
769,1.9660657107699397
770,0.12998674
798,2637.4942891535175
2,1, 1,15, 0, 8, 0.00,60.00,WinterDesignDay
7,-3.0
8,20.99998330078023
143,20.99998330078023
206,17.999892997005738
269,17.999892997005738
332,20.999734237610685
395,20.999734237610685
458,17.99942499079107
521,17.99942499079107
584,46.032
647,324.9827514238876
648,0.02361984375
651,324.9827514238876
652,0.02361984375
655,150.61199023050204
656,0.001399727783203125
659,150.61199023050204
660,0.001399727783203125
663,511.93013907026767
664,0.020739375000000004
667,511.93013907026767
668,0.020739375000000004
671,331.22412443983103
672,0.0034439604492187506
675,331.22412443983103
676,0.0034439604492187506
677,2635.382121478029
691,41.18170379485511
692,46.032
693,1014.1646955214331
768,1.9660657356747233
769,1.9660657356747233
770,0.12998674
798,2637.4980103289763
2,1, 1,15, 0, 9, 0.00,60.00,WinterDesignDay
7,-3.0
8,20.999949645976105
143,20.999949645976105
206,18.00021634549685
269,18.00021634549685
332,20.999738107492917
395,20.999738107492917
458,17.998887320919078
521,17.998887320919078
584,46.032
647,324.98346995445513
648,0.02361984375
651,324.98346995445513
652,0.02361984375
655,150.60933045370695
656,0.001399727783203125
659,150.60933045370695
660,0.001399727783203125
663,511.93005018141395
664,0.020739375000000004
667,511.93005018141395
668,0.020739375000000004
671,331.12076653383536
672,0.0034421601562500004
675,331.12076653383536
676,0.0034421601562500004
677,2635.2100145959494
691,41.18202054943511
692,46.032
693,1014.0984642442913
768,1.9660659868570303
769,1.9660659868570303
770,0.12998674
798,2637.2872342468227
2,1, 1,15, 0,10, 0.00,60.00,WinterDesignDay
7,-3.0
8,20.999892054370463
143,20.999892054370463
206,17.99992260878179
269,17.99992260878179
332,20.999731752831668
395,20.999731752831668
458,17.999430443632505
521,17.999430443632505
584,46.032
647,324.9865870622908
648,0.02361984375
651,324.9865870622908
652,0.02361984375
655,150.61180814621207
656,0.001399727783203125
659,150.61180814621207
660,0.001399727783203125
663,511.9301545696107
664,0.020739375000000004
667,511.9301545696107
668,0.020739375000000004
671,331.2220220814871
672,0.0034439604492187506
675,331.2220220814871
676,0.0034439604492187506
677,2635.386025454747
691,41.18169660977052
692,46.032
693,1014.1661978748593
768,1.966065729976974
769,1.966065729976974
770,0.12998674
798,2637.5011437192015
2,1, 1,15, 0,11, 0.00,60.00,WinterDesignDay
7,-3.0
8,21.000003176709182
143,21.000003176709182
206,18.00005365713414
269,18.00005365713414
332,20.999731597681116
395,20.999731597681116
458,17.999451603022102
521,17.999451603022102
584,46.032
647,324.9802686834955
648,0.02361984375
651,324.9802686834955
652,0.02361984375
655,150.61066481981976
656,0.001399727783203125
659,150.61066481981976
660,0.001399727783203125
663,511.9302311553141
664,0.020739375000000004
667,511.9302311553141
668,0.020739375000000004
671,331.2222312668956
672,0.0034439604492187506
675,331.2222312668956
676,0.0034439604492187506
677,2635.390466439344
691,41.181688436348324
692,46.032
693,1014.167906883111
768,1.9660657234962418
769,1.9660657234962418
770,0.12998674
798,2637.48679185105
2,1, 1,15, 0,12, 0.00,60.00,WinterDesignDay
7,-3.0
8,20.999680128582813
143,20.999680128582813
206,18.00000989540386
269,18.00000989540386
332,20.999738360532113
395,20.999738360532113
458,17.999199716120692
521,17.999199716120692
584,46.032
647,324.9914492102823
648,0.02361984375
651,324.9914492102823
652,0.02361984375
655,150.61148196003356
656,0.0013997277832031253
659,150.61148196003356
660,0.0013997277832031253
663,511.9299880513439
664,0.020739375000000004
667,511.9299880513439
668,0.020739375000000004
671,331.22849690785984
672,0.0034439604492187506
675,331.22849690785984
676,0.0034439604492187506
677,2635.360617384096
691,41.18174337212337
692,46.032
693,1014.1564201777178
768,1.966065767059637
769,1.966065767059637
770,0.12998674
798,2637.522832259039
2,1, 1,15, 0,13, 0.00,60.00,WinterDesignDay
7,-3.0
8,21.00016371359095
143,21.00016371359095
206,18.000100930769577
269,18.000100930769577
332,20.999728284833473
395,20.999728284833473
458,17.9996617183301
521,17.9996617183301
584,46.032
647,324.97840204956765
648,0.02361984375
651,324.97840204956765
652,0.02361984375
655,150.60983326534523
656,0.001399727783203125
659,150.60983326534523
660,0.001399727783203125
663,511.9302580110631
664,0.020739375000000004
667,511.9302580110631
668,0.020739375000000004
671,331.21777696172046
672,0.0034439604492187506
675,331.21777696172046
676,0.0034439604492187506
677,2635.4432184971965
691,41.18159134867973
692,46.032
693,1014.1882072692499
768,1.966065646506558
769,1.966065646506558
770,0.12998674
798,2637.472540575393
2,1, 1,15, 0,14, 0.00,60.00,WinterDesignDay
7,-3.0
8,20.999308759948267
143,20.999308759948267
206,18.00004858431226
269,18.00004858431226
332,20.999746048964568
395,20.999746048964568
458,17.998948171985006
521,17.998948171985006
584,46.032
647,324.8415032856392
648,0.023504625
651,324.8415032856392
652,0.023504625
655,150.61128319339386
656,0.0013997277832031253
659,150.61128319339386
660,0.0013997277832031253
663,511.92994901029397
664,0.020739375000000004
667,511.92994901029397
668,0.020739375000000004
671,331.11997045518405
672,0.0034421601562500004
675,331.11997045518405
676,0.0034421601562500004
677,2634.9068683236496
691,41.182578475817834
692,46.032
693,1013.9818055463215
768,1.9660664292849934
769,1.9660664292849934
770,0.12998674
798,2637.005411889022
2,1, 1,15, 0,15, 0.00,60.00,WinterDesignDay
7,-3.0
8,21.0003222258091
143,21.0003222258091
206,18.000064681059975
269,18.000064681059975
332,20.99973402512383
395,20.99973402512383
458,17.99946200920576
521,17.99946200920576
584,46.032
647,325.1307003957743
648,0.0237350625
651,325.1307003957743
652,0.0237350625
655,150.6106174785596
656,0.0013997277832031253
659,150.6106174785596
660,0.0013997277832031253
663,511.93012949863277
664,0.020739375000000004
667,511.93012949863277
668,0.020739375000000004
671,331.2215986644171
672,0.0034439604492187506
675,331.2215986644171
676,0.0034439604492187506
677,2635.6522662110824
691,41.1812066062452
692,46.032
693,1014.268654354845
768,1.9660653414116211
769,1.9660653414116211
770,0.12998674
798,2637.786092074767
2,1, 1,15, 0,16, 0.00,60.00,WinterDesignDay
7,-3.0
8,20.999565249294577
143,20.999565249294577
206,18.000041735183004
269,18.000041735183004
332,20.99973669146015
395,20.99973669146015
458,17.99940761096622
521,17.99940761096622
584,46.032
647,324.83614863451527
648,0.023504625
651,324.83614863451527
652,0.023504625
655,150.6108460930297
656,0.0013997277832031253
659,150.6108460930297
660,0.0013997277832031253
663,511.9300458776414
664,0.020739375000000004
667,511.9300458776414
668,0.020739375000000004
671,331.22459812098214
672,0.0034439604492187506
675,331.22459812098214
676,0.0034439604492187506
677,2635.1456744253273
691,41.18213896447742
692,46.032
693,1014.0737044460758
768,1.9660660807584236
769,1.9660660807584236
770,0.12998674
798,2637.2032774523373
2,1, 1,15, 0,17, 0.00,60.00,WinterDesignDay
7,-3.0
8,20.999883134605163
143,20.999883134605163
206,18.00004828684191
269,18.00004828684191
332,20.999732147335667
395,20.999732147335667
458,17.99924184697519
521,17.99924184697519
584,46.032
647,324.98417989946927
648,0.02361984375
651,324.98417989946927
652,0.02361984375
655,150.61069685474723
656,0.0013997277832031253
659,150.61069685474723
660,0.0013997277832031253
663,511.9301340031596
664,0.020739375000000004
667,511.9301340031596
668,0.020739375000000004
671,331.22620774917755
672,0.0034439604492187506
675,331.22620774917755
676,0.0034439604492187506
677,2635.378803488431
691,41.1817099014581
692,46.032
693,1014.1634186713386
768,1.966065740517389
769,1.966065740517389
770,0.12998674
798,2637.5024370131073
2,1, 1,15, 0,18, 0.00,60.00,WinterDesignDay
7,-3.0
8,20.999978996969183
143,20.999978996969183
206,17.999804879576956
269,17.999804879576956
332,20.99973432945885
395,20.99973432945885
458,17.99909207792981
521,17.99909207792981
584,46.032
647,324.9828103179193
648,0.02361984375
651,324.9828103179193
652,0.02361984375
655,150.53580235453535
656,0.0013988276367187503
659,150.53580235453535
660,0.0013988276367187503
663,511.93020110383696
664,0.020739375000000004
667,511.93020110383696
668,0.020739375000000004
671,331.1165634347578
672,0.0034421601562500004
675,331.1165634347578
676,0.0034421601562500004
677,2635.0800585799125
691,41.18225972733887
692,46.032
693,1014.0484537344831
768,1.966066176521747
769,1.966066176521747
770,0.12998674
798,2637.130754422099
2,1, 1,15, 0,19, 0.00,60.00,WinterDesignDay
7,-3.0
8,20.999946273124905
143,20.999946273124905
206,18.000291157398202
269,18.000291157398202
332,20.99973040988033
395,20.99973040988033
458,17.999421578205286
521,17.999421578205286
584,46.032
647,324.9835094697684
648,0.02361984375
651,324.9835094697684
652,0.02361984375
655,150.6855546513693
656,0.0014006279296875002
659,150.6855546513693
660,0.0014006279296875002
663,511.93017032173833
664,0.020739375000000004
667,511.93017032173833
668,0.020739375000000004
671,331.22243293868064
672,0.0034439604492187506
675,331.22243293868064
676,0.0034439604492187506
677,2635.5290886504354
691,41.18143330872226
692,46.032
693,1014.2212523738303
768,1.9660655211833924
769,1.9660655211833924
770,0.12998674
798,2637.6433347631137
2,1, 1,15, 0,20, 0.00,60.00,WinterDesignDay
7,-3.0
8,20.999887635231875
143,20.999887635231875
206,17.999838129861832
269,17.999838129861832
332,20.9997371686015
395,20.9997371686015
458,17.999514023161947
521,17.999514023161947
584,46.032
647,324.9866504839852
648,0.02361984375
651,324.9866504839852
652,0.02361984375
655,150.53563878048766
656,0.0013988276367187503
659,150.53563878048766
660,0.0013988276367187503
663,511.9300788555812
664,0.020739375000000004
667,511.9300788555812
668,0.020739375000000004
671,331.2209038887012
672,0.0034439604492187506
675,331.2209038887012
676,0.0034439604492187506
677,2635.2696252733263
691,41.18191083880153
692,46.032
693,1014.1214040085023
768,1.9660658998579141
769,1.9660658998579141
770,0.12998674
798,2637.3465440175105
2,1, 1,15, 0,21, 0.00,60.00,WinterDesignDay
7,-3.0
8,21.000002134587852
143,21.000002134587852
206,18.000061909863447
269,18.000061909863447
332,20.999736360421245
395,20.999736360421245
458,17.999444287654967
521,17.999444287654967
584,46.032
647,324.980288152223
648,0.02361984375
651,324.980288152223
652,0.02361984375
655,150.61058769344123
656,0.001399727783203125
659,150.61058769344123
660,0.001399727783203125
663,511.9300802605672
664,0.020739375000000004
667,511.9300802605672
668,0.020739375000000004
671,331.22409877067105
672,0.0034439604492187506
675,331.22409877067105
676,0.0034439604492187506
677,2635.3942190272455
691,41.18168152988769
692,46.032
693,1014.169350978119
768,1.966065718019183
769,1.966065718019183
770,0.12998674
798,2637.490109753805
2,1, 1,15, 0,22, 0.00,60.00,WinterDesignDay
7,-3.0
8,20.999682420527275
143,20.999682420527275
206,17.999905388121746
269,17.999905388121746
332,20.999744467904602
395,20.999744467904602
458,17.998898000390156
521,17.998898000390156
584,46.032
647,324.9914480223341
648,0.02361984375
651,324.9914480223341
652,0.02361984375
655,150.61191274837938
656,0.001399727783203125
659,150.61191274837938
660,0.001399727783203125
663,511.9299206093128
664,0.020739375000000004
667,511.9299206093128
668,0.020739375000000004
671,331.12067286391937
672,0.0034421601562500004
675,331.12067286391937
676,0.0034421601562500004
677,2635.152595060373
691,41.18212622737579
692,46.032
693,1014.0763676893591
768,1.9660660706581985
769,1.9660660706581985
770,0.12998674
798,2637.307908487891
2,1, 1,15, 0,23, 0.00,60.00,WinterDesignDay
7,-3.0
8,21.00016407221514
143,21.00016407221514
206,18.000035641248267
269,18.000035641248267
332,20.999731484377257
395,20.999731484377257
458,17.999432270487848
521,17.999432270487848
584,46.032
647,324.9783743356416
648,0.02361984375
651,324.9783743356416
652,0.02361984375
655,150.61075508605458
656,0.001399727783203125
659,150.61075508605458
660,0.001399727783203125
663,511.9301871623511
664,0.020739375000000004
667,511.9301871623511
668,0.020739375000000004
671,331.22198060952053
672,0.0034439604492187506
675,331.22198060952053
676,0.0034439604492187506
677,2635.425370875455
691,41.18162419638379
692,46.032
693,1014.1813390326776
768,1.9660656725541918
769,1.9660656725541918
770,0.12998674
798,2637.4825943871356
2,1, 1,15, 0,24, 0.00,60.00,WinterDesignDay
7,-3.0
8,20.99974685208309
143,20.99974685208309
206,17.999999295664498
269,17.999999295664498
332,20.999738320832797
395,20.999738320832797
458,17.999453085788694
521,17.999453085788694
584,46.032
647,324.9882006619166
648,0.02361984375
651,324.9882006619166
652,0.02361984375
655,150.61156025901553
656,0.0013997277832031253
659,150.61156025901553
660,0.0013997277832031253
663,511.93006632652884
664,0.020739375000000004
667,511.93006632652884
668,0.020739375000000004
671,331.2221989974693
672,0.0034439604492187506
675,331.2221989974693
676,0.0034439604492187506
677,2635.3694367763806
691,41.181727140448814
692,46.032
693,1014.1598141129723
768,1.966065754187502
769,1.966065754187502
770,0.12998674
798,2637.504052489861
End of Data
 Number of Records Written=         816
