Program Version,EnergyPlus, Version 24.2.0-94a887817b, YMD=2026.04.20 12:10
1,5,Environment Title[],Latitude[deg],Longitude[deg],Time Zone[],Elevation[m]
2,8,Day of Simulation[],Month[],Day of Month[],DST Indicator[1=yes 0=no],Hour[],StartMinute[],EndMinute[],DayType
3,5,Cumulative Day of Simulation[],Month[],Day of Month[],DST Indicator[1=yes 0=no],DayType  ! When Daily Report Variables Requested
4,2,Cumulative Days of Simulation[],Month[]  ! When Monthly Report Variables Requested
5,1,Cumulative Days of Simulation[] ! When Run Period Report Variables Requested
6,1,Calendar Year of Simulation[] ! When Annual Report Variables Requested
7,1,Environment,Site Outdoor Air Drybulb Temperature [C] !Hourly
8,1,Z1,Zone Air Temperature [C] !Hourly
143,1,Z2,Zone Air Temperature [C] !Hourly
206,1,Z3,Zone Air Temperature [C] !Hourly
269,1,Z4,Zone Air Temperature [C] !Hourly
332,1,Z5,Zone Air Temperature [C] !Hourly
395,1,Z6,Zone Air Temperature [C] !Hourly
458,1,Z7,Zone Air Temperature [C] !Hourly
521,1,Z8,Zone Air Temperature [C] !Hourly
584,1,HOT WATER LOOP,Plant Supply Side Outlet Temperature [C] !Hourly
647,1,Z1 RADIATOR,Baseboard Total Heating Rate [W] !Hourly
648,1,Z1 RADIATOR,Baseboard Hot Water Mass Flow Rate [kg/s] !Hourly
651,1,Z2 RADIATOR,Baseboard Total Heating Rate [W] !Hourly
652,1,Z2 RADIATOR,Baseboard Hot Water Mass Flow Rate [kg/s] !Hourly
655,1,Z3 RADIATOR,Baseboard Total Heating Rate [W] !Hourly
656,1,Z3 RADIATOR,Baseboard Hot Water Mass Flow Rate [kg/s] !Hourly
659,1,Z4 RADIATOR,Baseboard Total Heating Rate [W] !Hourly
660,1,Z4 RADIATOR,Baseboard Hot Water Mass Flow Rate [kg/s] !Hourly
663,1,Z5 RADIATOR,Baseboard Total Heating Rate [W] !Hourly
664,1,Z5 RADIATOR,Baseboard Hot Water Mass Flow Rate [kg/s] !Hourly
667,1,Z6 RADIATOR,Baseboard Total Heating Rate [W] !Hourly
668,1,Z6 RADIATOR,Baseboard Hot Water Mass Flow Rate [kg/s] !Hourly
671,1,Z7 RADIATOR,Baseboard Total Heating Rate [W] !Hourly
672,1,Z7 RADIATOR,Baseboard Hot Water Mass Flow Rate [kg/s] !Hourly
675,1,Z8 RADIATOR,Baseboard Total Heating Rate [W] !Hourly
676,1,Z8 RADIATOR,Baseboard Hot Water Mass Flow Rate [kg/s] !Hourly
677,1,HEAT PUMP,Heat Pump Load Side Heat Transfer Rate [W] !Hourly
691,1,HEAT PUMP,Heat Pump Load Side Inlet Temperature [C] !Hourly
692,1,HEAT PUMP,Heat Pump Load Side Outlet Temperature [C] !Hourly
693,1,HEAT PUMP,Heat Pump Electricity Rate [W] !Hourly
768,1,SUPPLY PUMP,Pump Electricity Rate [W] !Hourly
769,1,SUPPLY PUMP,Pump Fluid Heat Gain Rate [W] !Hourly
770,1,SUPPLY PUMP,Pump Mass Flow Rate [kg/s] !Hourly
798,1,Baseboard Total Heating Rate All Zones,PythonPlugin:OutputVariable [W] !Hourly
End of Data Dictionary
1,WINTER DESIGN DAY IN (MID) UK,  53.35,  -2.28,   0.00,  69.00
2,1, 1,15, 0, 1, 0.00,60.00,WinterDesignDay
7,-3.0
8,20.551343987889013
143,20.551343987889013
206,17.999917561029488
269,17.999917561029488
332,21.000588338529514
395,21.000588338529514
458,18.000005614133677
521,18.000005614133677
584,46.032
647,545.3997127390631
648,0.029496
651,545.3997127390631
652,0.029496
655,391.87826002475697
656,0.0047059658203125
659,391.87826002475697
660,0.0047059658203125
663,251.00677375678106
664,0.0026896376953125
667,251.00677375678106
668,0.0026896376953125
671,113.15514648327573
672,0.0009672073974609377
675,113.15514648327573
676,0.0009672073974609377
677,2600.8237917950173
691,41.245306766868765
692,46.032
693,1000.8657368561734
768,1.9661161732618195
769,1.9661161732618195
770,0.12998674
798,1874.5559455276402
2,1, 1,15, 0, 2, 0.00,60.00,WinterDesignDay
7,-3.0
8,20.551349475226246
143,20.551349475226246
206,17.999610282922518
269,17.999610282922518
332,20.999894856768925
395,20.999894856768925
458,17.99976633121787
521,17.99976633121787
584,46.032
647,545.3997319713994
648,0.029496
651,545.3997319713994
652,0.029496
655,391.8840221883441
656,0.0047059658203125
659,391.8840221883441
660,0.0047059658203125
663,250.88965033782785
664,0.0026878374023437505
667,250.88965033782785
668,0.0026878374023437505
671,113.10254103257128
672,0.0009667573242187502
675,113.10254103257128
676,0.0009667573242187502
677,2600.450026905558
691,41.24599466347783
692,46.032
693,1000.7219022478159
768,1.9661167187822555
769,1.9661167187822555
770,0.12998674
798,1874.567508319487
2,1, 1,15, 0, 3, 0.00,60.00,WinterDesignDay
7,-3.0
8,20.55134385632963
143,20.55134385632963
206,17.999917411665102
269,17.999917411665102
332,21.000550117374456
395,21.000550117374456
458,17.999597518561885
521,17.999597518561885
584,46.032
647,545.3997156051005
648,0.029496
651,545.3997156051005
652,0.029496
655,391.87826215152415
656,0.0047059658203125
659,391.87826215152415
660,0.0047059658203125
663,251.00722735883596
664,0.0026896376953125
667,251.00722735883596
668,0.0026896376953125
671,113.10378178525721
672,0.0009667573242187502
675,113.10378178525721
676,0.0009667573242187502
677,2600.7219464184864
691,41.24549420846946
692,46.032
693,1000.8265440634325
768,1.966116321909029
769,1.966116321909029
770,0.12998674
798,1874.5559555132495
2,1, 1,15, 0, 4, 0.00,60.00,WinterDesignDay
7,-3.0
8,20.551349352612966
143,20.551349352612966
206,17.99961014345927
269,17.99961014345927
332,21.000662332838587
395,21.000662332838587
458,18.000091480414216
521,18.000091480414216
584,46.032
647,545.3997346424549
648,0.029496
651,545.3997346424549
652,0.029496
655,391.88402417032944
656,0.0047059658203125
659,391.88402417032944
660,0.0047059658203125
663,251.0060969535392
664,0.0026896376953125
667,251.0060969535392
668,0.0026896376953125
671,113.15438544724171
672,0.0009672073974609377
675,113.15438544724171
676,0.0009672073974609377
677,2600.7557798623475
691,41.24543193961553
692,46.032
693,1000.8395640668742
768,1.9661162725269552
769,1.9661162725269552
770,0.12998674
798,1874.5675176255686
2,1, 1,15, 0, 5, 0.00,60.00,WinterDesignDay
7,-3.0
8,20.551343742053295
143,20.551343742053295
206,17.99991728169543
269,17.99991728169543
332,21.00015082320383
395,21.00015082320383
458,17.999698119466196
521,17.999698119466196
584,46.032
647,545.399718094576
648,0.029496
651,545.399718094576
652,0.029496
655,391.87826400216676
656,0.0047059658203125
659,391.87826400216676
660,0.0047059658203125
663,251.01328917831188
664,0.0026896376953125
667,251.01328917831188
668,0.0026896376953125
671,113.10323788380197
672,0.0009667573242187502
675,113.10323788380197
676,0.0009667573242187502
677,2600.7008157411765
691,41.245533098482085
692,46.032
693,1000.8184124203037
768,1.9661163527487844
769,1.9661163527487844
770,0.12998674
798,1874.5559641934856
2,1, 1,15, 0, 6, 0.00,60.00,WinterDesignDay
7,-3.0
8,20.551349246099825
143,20.551349246099825
206,17.999610022112115
269,17.999610022112115
332,21.000587571627214
395,21.000587571627214
458,17.99957325930184
521,17.99957325930184
584,46.032
647,545.3997369627389
648,0.029496
651,545.3997369627389
652,0.029496
655,391.88402589488004
656,0.0047059658203125
659,391.88402589488004
660,0.0047059658203125
663,251.00680028899274
664,0.0026896376953125
667,251.00680028899274
668,0.0026896376953125
671,113.10390351385519
672,0.0009667573242187502
675,113.10390351385519
676,0.0009667573242187502
677,2600.6559862401264
691,41.24561560505943
692,46.032
693,1000.8011608434213
768,1.966116418179055
769,1.966116418179055
770,0.12998674
798,1874.5675257152377
2,1, 1,15, 0, 7, 0.00,60.00,WinterDesignDay
7,-3.0
8,20.551343642775876
143,20.551343642775876
206,17.999917168614886
269,17.999917168614886
332,21.000102485394017
395,21.000102485394017
458,18.00014772002026
521,18.00014772002026
584,46.032
647,545.3997202572691
648,0.029496
651,545.3997202572691
652,0.029496
655,391.8782656123479
656,0.0047059658203125
659,391.8782656123479
660,0.0047059658203125
663,250.88491935466976
664,0.0026878374023437505
667,250.88491935466976
668,0.0026878374023437505
671,113.1539910561333
672,0.0009672073974609377
675,113.1539910561333
676,0.0009672073974609377
677,2600.6086395547773
691,41.24570274439546
692,46.032
693,1000.7829405874897
768,1.9661164872829167
769,1.9661164872829167
770,0.12998674
798,1874.5559717392339
2,1, 1,15, 0, 8, 0.00,60.00,WinterDesignDay
7,-3.0
8,20.551349153560516
143,20.551349153560516
206,17.999609916539274
269,17.999609916539274
332,21.00043854950222
395,21.00043854950222
458,17.999671138730527
521,17.999671138730527
584,46.032
647,545.3997389785827
648,0.029496
651,545.3997389785827
652,0.029496
655,391.8840273952697
656,0.0047059658203125
659,391.8840273952697
660,0.0047059658203125
663,251.01087252269625
664,0.0026896376953125
667,251.01087252269625
668,0.0026896376953125
671,113.1034860996306
672,0.0009667573242187502
675,113.1034860996306
676,0.0009667573242187502
677,2600.663783125694
691,41.24560125526014
692,46.032
693,1000.8041612910655
768,1.9661164067988706
769,1.9661164067988706
770,0.12998674
798,1874.5675327477047
2,1, 1,15, 0, 9, 0.00,60.00,WinterDesignDay
7,-3.0
8,20.551343556517267
143,20.551343556517267
206,17.999917070238897
269,17.999917070238897
332,21.00062597104171
395,21.00062597104171
458,17.999812618491553
521,17.999812618491553
584,46.032
647,545.3997221363259
648,0.029496
651,545.3997221363259
652,0.029496
655,391.8782670131641
656,0.0047059658203125
659,391.8782670131641
660,0.0047059658203125
663,251.006506418649
664,0.0026896376953125
667,251.006506418649
668,0.0026896376953125
671,113.15607765117483
672,0.0009672073974609377
675,113.15607765117483
676,0.0009672073974609377
677,2600.8115367523355
691,41.24532932169545
692,46.032
693,1000.8610207918391
768,1.9661161911491685
769,1.9661161911491685
770,0.12998674
798,1874.5559782989799
2,1, 1,15, 0,10, 0.00,60.00,WinterDesignDay
7,-3.0
8,20.5513490731516
143,20.5513490731516
206,17.999609824698474
269,17.999609824698474
332,21.00024497253814
395,21.00024497253814
458,17.999948010297995
521,17.999948010297995
584,46.032
647,545.3997407301571
648,0.029496
651,545.3997407301571
652,0.029496
655,391.88402870051357
656,0.0047059658203125
659,391.88402870051357
660,0.0047059658203125
663,251.01138141881646
664,0.0026896376953125
667,251.01138141881646
668,0.0026896376953125
671,113.10167175546785
672,0.0009667573242187502
675,113.10167175546785
676,0.0009667573242187502
677,2600.6416532158514
691,41.245641984312996
692,46.032
693,1000.7956451168476
768,1.9661164390985548
769,1.9661164390985548
770,0.12998674
798,1874.5675388613413
2,1, 1,15, 0,11, 0.00,60.00,WinterDesignDay
7,-3.0
8,20.55134348156164
143,20.55134348156164
206,17.999916984662573
269,17.999916984662573
332,21.000553883940928
395,21.000553883940928
458,17.999645097561974
521,17.999645097561974
584,46.032
647,545.3997237691365
648,0.029496
651,545.3997237691365
652,0.029496
655,391.87826823173503
656,0.0047059658203125
659,391.87826823173503
660,0.0047059658203125
663,251.00801767115632
664,0.0026896376953125
667,251.00801767115632
668,0.0026896376953125
671,113.10359584963541
672,0.0009667573242187502
675,113.10359584963541
676,0.0009667573242187502
677,2600.723611889644
691,41.24549114324853
692,46.032
693,1000.8271849807536
768,1.9661163194771316
769,1.9661163194771316
770,0.12998674
798,1874.555984001743
2,1, 1,15, 0,12, 0.00,60.00,WinterDesignDay
7,-3.0
8,20.551349003275536
143,20.551349003275536
206,17.999609744810726
269,17.999609744810726
332,21.00065983328836
395,21.00065983328836
458,18.00001516593582
521,18.00001516593582
584,46.032
647,545.3997422522722
648,0.029496
651,545.3997422522722
652,0.029496
655,391.88402983589293
656,0.0047059658203125
659,391.88402983589293
660,0.0047059658203125
663,251.00614496909574
664,0.0026896376953125
667,251.00614496909574
668,0.0026896376953125
671,113.15511511844036
672,0.0009672073974609377
675,113.15511511844036
676,0.0009672073974609377
677,2600.7573954961813
691,41.24542896611784
692,46.032
693,1000.8401858054758
768,1.9661162701691208
769,1.9661162701691208
770,0.12998674
798,1874.5675441763303
2,1, 1,15, 0,13, 0.00,60.00,WinterDesignDay
7,-3.0
8,20.55134341642191
143,20.55134341642191
206,17.999916910227228
269,17.999916910227228
332,20.999938450408205
395,20.999938450408205
458,17.999782383345103
521,17.999782383345103
584,46.032
647,545.3997251881078
648,0.029496
651,545.3997251881078
652,0.029496
655,391.87826929167454
656,0.0047059658203125
659,391.87826929167454
660,0.0047059658203125
663,250.88917436401033
664,0.0026878374023437505
667,250.88917436401033
668,0.0026878374023437505
671,113.10248182851592
672,0.0009667573242187502
675,113.10248182851592
676,0.0009667573242187502
677,2600.5141190821237
691,41.24587670485686
692,46.032
693,1000.746566611364
768,1.966116625239059
769,1.966116625239059
770,0.12998674
798,1874.5559889595647
2,1, 1,15, 0,14, 0.00,60.00,WinterDesignDay
7,-3.0
8,20.55134894254815
143,20.55134894254815
206,17.999609675325885
269,17.999609675325885
332,21.000582830953157
395,21.000582830953157
458,17.99961701474692
521,17.99961701474692
584,46.032
647,545.3997435750897
648,0.029496
651,545.3997435750897
652,0.029496
655,391.88403082343245
656,0.0047059658203125
659,391.88403082343245
660,0.0047059658203125
663,251.00687731382044
664,0.0026896376953125
667,251.00687731382044
668,0.0026896376953125
671,113.10370557991479
672,0.0009667573242187502
675,113.10370557991479
676,0.0009667573242187502
677,2600.655984407341
691,41.24561560843257
692,46.032
693,1000.8011601381171
768,1.9661164181813224
769,1.9661164181813224
770,0.12998674
798,1874.5675487970443
2,1, 1,15, 0,15, 0.00,60.00,WinterDesignDay
7,-3.0
8,20.551343359808655
143,20.551343359808655
206,17.999916845486982
269,17.999916845486982
332,21.000685872399707
395,21.000685872399707
458,18.00000335043287
521,18.00000335043287
584,46.032
647,545.3997264213313
648,0.029496
651,545.3997264213313
652,0.029496
655,391.87827021356634
656,0.0047059658203125
659,391.87827021356634
660,0.0047059658203125
663,251.0058185417779
664,0.0026896376953125
667,251.0058185417779
668,0.0026896376953125
671,113.15517324286245
672,0.0009672073974609377
675,113.15517324286245
676,0.0009672073974609377
677,2600.8220033706625
691,41.24531005837924
692,46.032
693,1000.8650486232123
768,1.9661161758732955
769,1.9661161758732955
770,0.12998674
798,1874.5559932697954
2,1, 1,15, 0,16, 0.00,60.00,WinterDesignDay
7,-3.0
8,20.55134888976808
143,20.55134888976808
206,17.999609614892933
269,17.999609614892933
332,21.0001643148129
395,21.0001643148129
458,17.999770517232857
521,17.999770517232857
584,46.032
647,545.3997447247855
648,0.029496
651,545.3997447247855
652,0.029496
655,391.88403168232844
656,0.0047059658203125
659,391.88403168232844
660,0.0047059658203125
663,251.01315949221961
664,0.0026896376953125
667,251.01315949221961
668,0.0026896376953125
671,113.10253272092777
672,0.0009667573242187502
675,113.10253272092777
676,0.0009667573242187502
677,2600.6339948898953
691,41.24565607909987
692,46.032
693,1000.7926979906042
768,1.9661164502760922
769,1.9661164502760922
770,0.12998674
798,1874.5675528142278
2,1, 1,15, 0,17, 0.00,60.00,WinterDesignDay
7,-3.0
8,20.55134331060372
143,20.55134331060372
206,17.99991678918157
269,17.99991678918157
332,21.000602694646574
395,21.000602694646574
458,17.99960927311345
521,17.99960927311345
584,46.032
647,545.3997274931754
648,0.029496
651,545.3997274931754
652,0.029496
655,391.87827101535083
656,0.0047059658203125
659,391.87827101535083
660,0.0047059658203125
663,251.00664911129428
664,0.0026896376953125
667,251.00664911129428
668,0.0026896376953125
671,113.1037487990875
672,0.0009667573242187502
675,113.1037487990875
676,0.0009667573242187502
677,2600.720546497104
691,41.24549678495859
692,46.032
693,1000.8260053366837
768,1.966116323951162
769,1.966116323951162
770,0.12998674
798,1874.555997017052
2,1, 1,15, 0,18, 0.00,60.00,WinterDesignDay
7,-3.0
8,20.551348843894242
143,20.551348843894242
206,17.999609562334555
269,17.999609562334555
332,21.000108978271612
395,21.000108978271612
458,18.000000796629013
521,18.000000796629013
584,46.032
647,545.3997457240398
648,0.029496
651,545.3997457240398
652,0.029496
655,391.8840324293115
656,0.0047059658203125
659,391.8840324293115
660,0.0047059658203125
663,250.8847930047465
664,0.0026878374023437505
667,250.8847930047465
668,0.0026878374023437505
671,113.15518870893835
672,0.0009672073974609377
675,113.15518870893835
676,0.0009672073974609377
677,2600.545806756386
691,41.24581838519043
692,46.032
693,1000.7587608659495
768,1.966116578988994
769,1.966116578988994
770,0.12998674
798,1874.567556306703
2,1, 1,15, 0,19, 0.00,60.00,WinterDesignDay
7,-3.0
8,20.55134326783576
143,20.55134326783576
206,17.999916740214054
269,17.999916740214054
332,21.000437816435586
395,21.000437816435586
458,17.999758713467205
521,17.999758713467205
584,46.032
647,545.3997284247911
648,0.029496
651,545.3997284247911
652,0.029496
655,391.8782717126486
656,0.0047059658203125
659,391.8782717126486
660,0.0047059658203125
663,251.01091151474583
664,0.0026896376953125
667,251.01091151474583
668,0.0026896376953125
671,113.10256198671884
672,0.0009667573242187502
675,113.10256198671884
676,0.0009667573242187502
677,2600.7270338967874
691,41.245484845206164
692,46.032
693,1000.8285018595487
768,1.9661163144837073
769,1.9661163144837073
770,0.12998674
798,1874.5560002748794
2,1, 1,15, 0,20, 0.00,60.00,WinterDesignDay
7,-3.0
8,20.551348804019707
143,20.551348804019707
206,17.999609516626805
269,17.999609516626805
332,21.000632431212754
395,21.000632431212754
458,17.999605578194828
521,17.999605578194828
584,46.032
647,545.3997465926036
648,0.029496
651,545.3997465926036
652,0.029496
655,391.8840330789338
656,0.0047059658203125
659,391.8840330789338
660,0.0047059658203125
663,251.00645387673956
664,0.0026896376953125
667,251.00645387673956
668,0.0026896376953125
671,113.10376815100717
672,0.0009667573242187502
675,113.10376815100717
676,0.0009667573242187502
677,2600.6550557563633
691,41.2456173175708
692,46.032
693,1000.8008027686758
768,1.9661164195367156
769,1.9661164195367156
770,0.12998674
798,1874.567559343075
2,1, 1,15, 0,21, 0.00,60.00,WinterDesignDay
7,-3.0
8,20.551343230659725
143,20.551343230659725
206,17.99991669762995
269,17.99991669762995
332,21.000240699220647
395,21.000240699220647
458,18.00011003315837
521,18.00011003315837
584,46.032
647,545.3997292345925
648,0.029496
651,545.3997292345925
652,0.029496
655,391.87827231904953
656,0.0047059658203125
659,391.87827231904953
660,0.0047059658203125
663,251.01137434823488
664,0.0026896376953125
667,251.01137434823488
668,0.0026896376953125
671,113.15432001122153
672,0.0009672073974609377
675,113.15432001122153
676,0.0009672073974609377
677,2600.7988819557095
691,41.245352612250386
692,46.032
693,1000.8561508916214
768,1.9661162096184708
769,1.9661162096184708
770,0.12998674
798,1874.556003107284
2,1, 1,15, 0,22, 0.00,60.00,WinterDesignDay
7,-3.0
8,20.551348769358185
143,20.551348769358185
206,17.999609476878025
269,17.999609476878025
332,21.000553433276973
395,21.000553433276973
458,17.999698363337057
521,17.999698363337057
584,46.032
647,545.399747347612
648,0.029496
651,545.399747347612
652,0.029496
655,391.8840336438654
656,0.0047059658203125
659,391.8840336438654
660,0.0047059658203125
663,251.0080568178147
664,0.0026896376953125
667,251.0080568178147
668,0.0026896376953125
671,113.10322518450106
672,0.0009667573242187502
675,113.10322518450106
676,0.0009667573242187502
677,2600.6576922325767
691,41.24561246526096
692,46.032
693,1000.8018173544069
768,1.9661164156891087
769,1.9661164156891087
770,0.12998674
798,1874.5675619829549
2,1, 1,15, 0,23, 0.00,60.00,WinterDesignDay
7,-3.0
8,20.551343198343233
143,20.551343198343233
206,17.999916660597705
269,17.999916660597705
332,21.000070886475076
395,21.000070886475076
458,17.999587819865738
521,17.999587819865738
584,46.032
647,545.3997299385346
648,0.029496
651,545.3997299385346
652,0.029496
655,391.8782728463915
656,0.0047059658203125
659,391.8782728463915
660,0.0047059658203125
663,250.8852987899128
664,0.0026878374023437505
667,250.8852987899128
668,0.0026878374023437505
671,113.10385232694345
672,0.0009667573242187502
675,113.10385232694345
676,0.0009667573242187502
677,2600.509050541247
691,41.24588603326673
692,46.032
693,1000.7446161028689
768,1.9661166326359767
769,1.9661166326359767
770,0.12998674
798,1874.5560055698522
2,1, 1,15, 0,24, 0.00,60.00,WinterDesignDay
7,-3.0
8,20.55134873922669
143,20.55134873922669
206,17.9996094423117
269,17.9996094423117
332,21.00039683397368
395,21.00039683397368
458,18.000077316399597
521,18.000077316399597
584,46.032
647,545.3997480039416
648,0.029496
651,545.3997480039416
652,0.029496
655,391.88403413514277
656,0.0047059658203125
659,391.88403413514277
660,0.0047059658203125
663,251.01128756279977
664,0.0026896376953125
667,251.01128756279977
668,0.0026896376953125
671,113.15440792851058
672,0.0009672073974609377
675,113.15440792851058
676,0.0009672073974609377
677,2600.7667423438884
691,41.24541176368652
692,46.032
693,1000.843782719518
768,1.966116256526901
769,1.966116256526901
770,0.12998674
798,1874.5675642781687
End of Data
 Number of Records Written=         816
