Program Version,EnergyPlus, Version 24.2.0-94a887817b, YMD=2026.04.28 12:47
1,5,Environment Title[],Latitude[deg],Longitude[deg],Time Zone[],Elevation[m]
2,8,Day of Simulation[],Month[],Day of Month[],DST Indicator[1=yes 0=no],Hour[],StartMinute[],EndMinute[],DayType
3,5,Cumulative Day of Simulation[],Month[],Day of Month[],DST Indicator[1=yes 0=no],DayType  ! When Daily Report Variables Requested
4,2,Cumulative Days of Simulation[],Month[]  ! When Monthly Report Variables Requested
5,1,Cumulative Days of Simulation[] ! When Run Period Report Variables Requested
6,1,Calendar Year of Simulation[] ! When Annual Report Variables Requested
7,1,Environment,Site Outdoor Air Drybulb Temperature [C] !Hourly
8,1,Z1,Zone Air Temperature [C] !Hourly
143,1,Z2,Zone Air Temperature [C] !Hourly
206,1,Z3,Zone Air Temperature [C] !Hourly
269,1,Z4,Zone Air Temperature [C] !Hourly
332,1,Z5,Zone Air Temperature [C] !Hourly
395,1,Z6,Zone Air Temperature [C] !Hourly
458,1,Z7,Zone Air Temperature [C] !Hourly
521,1,Z8,Zone Air Temperature [C] !Hourly
584,1,HOT WATER LOOP,Plant Supply Side Outlet Temperature [C] !Hourly
647,1,Z1 RADIATOR,Baseboard Total Heating Rate [W] !Hourly
648,1,Z1 RADIATOR,Baseboard Hot Water Mass Flow Rate [kg/s] !Hourly
651,1,Z2 RADIATOR,Baseboard Total Heating Rate [W] !Hourly
652,1,Z2 RADIATOR,Baseboard Hot Water Mass Flow Rate [kg/s] !Hourly
655,1,Z3 RADIATOR,Baseboard Total Heating Rate [W] !Hourly
656,1,Z3 RADIATOR,Baseboard Hot Water Mass Flow Rate [kg/s] !Hourly
659,1,Z4 RADIATOR,Baseboard Total Heating Rate [W] !Hourly
660,1,Z4 RADIATOR,Baseboard Hot Water Mass Flow Rate [kg/s] !Hourly
663,1,Z5 RADIATOR,Baseboard Total Heating Rate [W] !Hourly
664,1,Z5 RADIATOR,Baseboard Hot Water Mass Flow Rate [kg/s] !Hourly
667,1,Z6 RADIATOR,Baseboard Total Heating Rate [W] !Hourly
668,1,Z6 RADIATOR,Baseboard Hot Water Mass Flow Rate [kg/s] !Hourly
671,1,Z7 RADIATOR,Baseboard Total Heating Rate [W] !Hourly
672,1,Z7 RADIATOR,Baseboard Hot Water Mass Flow Rate [kg/s] !Hourly
675,1,Z8 RADIATOR,Baseboard Total Heating Rate [W] !Hourly
676,1,Z8 RADIATOR,Baseboard Hot Water Mass Flow Rate [kg/s] !Hourly
677,1,HEAT PUMP,Heat Pump Load Side Heat Transfer Rate [W] !Hourly
691,1,HEAT PUMP,Heat Pump Load Side Inlet Temperature [C] !Hourly
692,1,HEAT PUMP,Heat Pump Load Side Outlet Temperature [C] !Hourly
693,1,HEAT PUMP,Heat Pump Electricity Rate [W] !Hourly
768,1,SUPPLY PUMP,Pump Electricity Rate [W] !Hourly
769,1,SUPPLY PUMP,Pump Fluid Heat Gain Rate [W] !Hourly
770,1,SUPPLY PUMP,Pump Mass Flow Rate [kg/s] !Hourly
798,1,Baseboard Total Heating Rate All Zones,PythonPlugin:OutputVariable [W] !Hourly
End of Data Dictionary
1,WINTER DESIGN DAY IN (MID) UK,  53.35,  -2.28,   0.00,  69.00
2,1, 1,15, 0, 1, 0.00,60.00,WinterDesignDay
7,-3.0
8,21.000134150904326
143,21.000134150904326
206,17.99971796419434
269,17.99971796419434
332,20.999798222551966
395,20.999798222551966
458,17.999523846942747
521,17.999523846942747
584,46.032
647,324.9709756539526
648,0.004061460937500001
651,324.9709756539526
652,0.004061460937500001
655,150.5763501373034
656,0.0012962109375000003
659,150.5763501373034
660,0.0012962109375000003
663,511.9288951200753
664,0.020739375000000004
667,511.9288951200753
668,0.020739375000000004
671,331.2192009611242
672,0.0034439604492187506
675,331.2192009611242
676,0.0034439604492187506
677,2635.294150787809
691,41.18186570075159
692,46.032
693,1014.1308420747033
768,1.9660658640638653
769,1.9660658640638653
770,0.12998674
798,951.094651582512
2,1, 1,15, 0, 2, 0.00,60.00,WinterDesignDay
7,-3.0
8,21.000134966671794
143,21.000134966671794
206,17.999725598975864
269,17.999725598975864
332,20.99980085913849
395,20.99980085913849
458,17.999238242701786
521,17.999238242701786
584,46.032
647,324.9709738165267
648,0.004061460937500001
651,324.9709738165267
652,0.004061460937500001
655,150.5762959876217
656,0.0012962109375000003
659,150.5762959876217
660,0.0012962109375000003
663,511.9287289796967
664,0.020739375000000004
667,511.9287289796967
668,0.020739375000000004
671,331.22788132077426
672,0.0034439604492187506
675,331.22788132077426
676,0.0034439604492187506
677,2635.283853922237
691,41.18188465164588
692,46.032
693,1014.1268795686772
768,1.9660658790916732
769,1.9660658790916732
770,0.12998674
798,951.0945396082968
2,1, 1,15, 0, 3, 0.00,60.00,WinterDesignDay
7,-3.0
8,21.00013557933771
143,21.00013557933771
206,17.999721384301754
269,17.999721384301754
332,20.999797644552064
395,20.999797644552064
458,17.999078006469087
521,17.999078006469087
584,46.032
647,324.9709597494527
648,0.004061460937500001
651,324.9709597494527
652,0.004061460937500001
655,150.5763191025427
656,0.0012962109375000003
659,150.5763191025427
660,0.0012962109375000003
663,511.9288461006675
664,0.020739375000000004
667,511.9288461006675
668,0.020739375000000004
671,331.116740078493
672,0.0034421601562500004
675,331.116740078493
676,0.0034421601562500004
677,2635.116393967768
691,41.182192853775305
692,46.032
693,1014.0624365521022
768,1.9660661234917334
769,1.9660661234917334
770,0.12998674
798,951.0945577039907
2,1, 1,15, 0, 4, 0.00,60.00,WinterDesignDay
7,-3.0
8,21.00013541489372
143,21.00013541489372
206,17.999718301718744
269,17.999718301718744
332,20.99979510797496
395,20.99979510797496
458,17.99944062552859
521,17.99944062552859
584,46.032
647,324.97095952693303
648,0.004061460937500001
651,324.97095952693303
652,0.004061460937500001
655,150.57633211539473
656,0.0012962109375000003
659,150.57633211539473
660,0.0012962109375000003
663,511.9288896832319
664,0.020739375000000004
667,511.9288896832319
668,0.020739375000000004
671,331.22186344003035
672,0.0034439604492187506
675,331.22186344003035
676,0.0034439604492187506
677,2635.2999015748346
691,41.181855116699936
692,46.032
693,1014.1330551295488
768,1.9660658556708546
769,1.9660658556708546
770,0.12998674
798,951.0945832846555
2,1, 1,15, 0, 5, 0.00,60.00,WinterDesignDay
7,-3.0
8,21.000134925265897
143,21.000134925265897
206,17.999715743022552
269,17.999715743022552
332,20.999793362563288
395,20.999793362563288
458,17.99944107456601
521,17.99944107456601
584,46.032
647,324.9709680538649
648,0.004061460937500001
651,324.9709680538649
652,0.004061460937500001
655,150.5763415023525
656,0.0012962109375000003
659,150.5763415023525
660,0.0012962109375000003
663,511.92890409559095
664,0.020739375000000004
667,511.92890409559095
668,0.020739375000000004
671,331.222316570051
672,0.0034439604492187506
675,331.222316570051
676,0.0034439604492187506
677,2635.3012703898203
691,41.18185259746067
692,46.032
693,1014.1335818857339
768,1.9660658536731315
769,1.9660658536731315
770,0.12998674
798,951.0946191124349
2,1, 1,15, 0, 6, 0.00,60.00,WinterDesignDay
7,-3.0
8,21.000133979827424
143,21.000133979827424
206,17.999720790879344
269,17.999720790879344
332,20.999800411033853
395,20.999800411033853
458,17.999506792444443
521,17.999506792444443
584,46.032
647,324.9709792866379
648,0.004061460937500001
651,324.9709792866379
652,0.004061460937500001
655,150.576337004877
656,0.0012962109375000003
659,150.576337004877
660,0.0012962109375000003
663,511.92882098399184
664,0.020739375000000004
667,511.92882098399184
668,0.020739375000000004
671,331.2209227441602
672,0.0034439604492187506
675,331.2209227441602
676,0.0034439604492187506
677,2635.2974118249354
691,41.18185969896692
692,46.032
693,1014.1320970079814
768,1.9660658593045297
769,1.9660658593045297
770,0.12998674
798,951.0946325830297
2,1, 1,15, 0, 7, 0.00,60.00,WinterDesignDay
7,-3.0
8,21.000135397398008
143,21.000135397398008
206,17.99972333774027
269,17.99972333774027
332,20.99979742284492
395,20.99979742284492
458,17.999425195797098
521,17.999425195797098
584,46.032
647,324.97096867081876
648,0.004061460937500001
651,324.97096867081876
652,0.004061460937500001
655,150.57629598172565
656,0.0012962109375000003
659,150.57629598172565
660,0.0012962109375000003
663,511.92876702681804
664,0.020739375000000004
667,511.92876702681804
668,0.020739375000000004
671,331.22429665048
672,0.0034439604492187506
675,331.22429665048
676,0.0034439604492187506
677,2635.305267093114
691,41.1818452417172
692,46.032
693,1014.1351199227971
768,1.9660658478401236
769,1.9660658478401236
770,0.12998674
798,951.0945293050888
2,1, 1,15, 0, 8, 0.00,60.00,WinterDesignDay
7,-3.0
8,21.000135525684634
143,21.000135525684634
206,17.99972165229254
269,17.99972165229254
332,20.999798071147975
395,20.999798071147975
458,17.99923921243936
521,17.99923921243936
584,46.032
647,324.97096069313835
648,0.004061460937500001
651,324.97096069313835
652,0.004061460937500001
655,150.57631861030956
656,0.0012962109375000003
659,150.57631861030956
660,0.0012962109375000003
663,511.9288327330027
664,0.020739375000000004
667,511.9288327330027
668,0.020739375000000004
671,331.22618937772063
672,0.0034439604492187506
675,331.22618937772063
676,0.0034439604492187506
677,2635.2802773126264
691,41.18189123422678
692,46.032
693,1014.1255031947665
768,1.9660658843115728
769,1.9660658843115728
770,0.12998674
798,951.0945586068958
2,1, 1,15, 0, 9, 0.00,60.00,WinterDesignDay
7,-3.0
8,21.00013521202513
143,21.00013521202513
206,17.999718396360755
269,17.999718396360755
332,20.999795909164767
395,20.999795909164767
458,17.99907701241068
521,17.99907701241068
584,46.032
647,324.97096280554774
648,0.004061460937500001
651,324.97096280554774
652,0.004061460937500001
655,150.57633515821024
656,0.0012962109375000003
659,150.57633515821024
660,0.0012962109375000003
663,511.92888457535423
664,0.020739375000000004
667,511.92888457535423
668,0.020739375000000004
671,331.11670785156616
672,0.0034421601562500004
675,331.11670785156616
676,0.0034421601562500004
677,2635.1164528859013
691,41.18219274533926
692,46.032
693,1014.0624592253571
768,1.9660661234057453
769,1.9660661234057453
770,0.12998674
798,951.094595927516
2,1, 1,15, 0,10, 0.00,60.00,WinterDesignDay
7,-3.0
8,21.000134590961707
143,21.000134590961707
206,17.99971523205958
269,17.99971523205958
332,20.999793655295967
395,20.999793655295967
458,17.999808196223352
521,17.999808196223352
584,46.032
647,324.97096914091657
648,0.004061460937500001
651,324.97096914091657
652,0.004061460937500001
655,150.57634889204652
656,0.0012962109375000003
659,150.57634889204652
660,0.0012962109375000003
663,511.9289202396359
664,0.020739375000000004
667,511.9289202396359
668,0.020739375000000004
671,331.32709865983287
672,0.0034457607421875007
675,331.32709865983287
676,0.0034457607421875007
677,2635.4835143363152
691,41.18151718609285
692,46.032
693,1014.2037141731929
768,1.9660655876965056
769,1.9660655876965056
770,0.12998674
798,951.0946360659262
2,1, 1,15, 0,11, 0.00,60.00,WinterDesignDay
7,-3.0
8,21.000134177445545
143,21.000134177445545
206,17.99972325552302
269,17.99972325552302
332,20.999801716097643
395,20.999801716097643
458,17.999153961414507
521,17.999153961414507
584,46.032
647,324.9709813949639
648,0.004061460937500001
651,324.9709813949639
652,0.004061460937500001
655,150.57632176728836
656,0.0012962109375000003
659,150.57632176728836
660,0.0012962109375000003
663,511.92877606368853
664,0.020739375000000004
667,511.92877606368853
668,0.020739375000000004
671,331.1159262573806
672,0.0034421601562500004
675,331.1159262573806
676,0.0034421601562500004
677,2635.114657313021
691,41.182196050006254
692,46.032
693,1014.061768241454
768,1.9660661260263024
769,1.9660661260263024
770,0.12998674
798,951.0946063245046
2,1, 1,15, 0,12, 0.00,60.00,WinterDesignDay
7,-3.0
8,21.000135610005252
143,21.000135610005252
206,17.99972165654589
269,17.99972165654589
332,20.999796459978356
395,20.999796459978356
458,17.999444627555977
521,17.999444627555977
584,46.032
647,324.9709629728392
648,0.004061460937500001
651,324.9709629728392
652,0.004061460937500001
655,150.57630807766728
656,0.0012962109375000003
659,150.57630807766728
660,0.0012962109375000003
663,511.92883714724815
664,0.020739375000000004
667,511.92883714724815
668,0.020739375000000004
671,331.2220882837816
672,0.0034439604492187506
675,331.2220882837816
676,0.0034439604492187506
677,2635.300651265088
691,41.181853736930464
692,46.032
693,1014.1333436301729
768,1.9660658545767156
769,1.9660658545767156
770,0.12998674
798,951.094542101013
2,1, 1,15, 0,13, 0.00,60.00,WinterDesignDay
7,-3.0
8,21.000135536887807
143,21.000135536887807
206,17.999720156376863
269,17.999720156376863
332,20.999795578043877
395,20.999795578043877
458,17.999408984500935
521,17.999408984500935
584,46.032
647,324.9709612896494
648,0.004061460937500001
651,324.9709612896494
652,0.004061460937500001
655,150.57631712313503
656,0.0012962109375000003
659,150.57631712313503
660,0.0012962109375000003
663,511.92882386316387
664,0.020739375000000004
667,511.92882386316387
668,0.020739375000000004
671,331.22428513829453
672,0.0034439604492187506
675,331.22428513829453
676,0.0034439604492187506
677,2635.3049652081972
691,41.18184579732212
692,46.032
693,1014.1350037495023
768,1.9660658482807114
769,1.9660658482807114
770,0.12998674
798,951.0945568255687
2,1, 1,15, 0,14, 0.00,60.00,WinterDesignDay
7,-3.0
8,21.00013501144762
143,21.00013501144762
206,17.999718560804777
269,17.999718560804777
332,20.999796458795302
395,20.999796458795302
458,17.999236220215565
521,17.999236220215565
584,46.032
647,324.9709653449838
648,0.004061460937500001
651,324.9709653449838
652,0.004061460937500001
655,150.5763346048203
656,0.0012962109375000003
659,150.5763346048203
660,0.0012962109375000003
663,511.92886805319745
664,0.020739375000000004
667,511.92886805319745
668,0.020739375000000004
671,331.22620101725045
672,0.0034439604492187506
675,331.22620101725045
676,0.0034439604492187506
677,2635.2804015757924
691,41.1818910055263
692,46.032
693,1014.1255510145172
768,1.9660658841302168
769,1.9660658841302168
770,0.12998674
798,951.0945998996083
2,1, 1,15, 0,15, 0.00,60.00,WinterDesignDay
7,-3.0
8,21.000134316671804
143,21.000134316671804
206,17.999715387279046
269,17.999715387279046
332,20.999794492275594
395,20.999794492275594
458,17.999669492031217
521,17.999669492031217
584,46.032
647,324.97097339210046
648,0.004061460937500001
651,324.97097339210046
652,0.004061460937500001
655,150.57635159438246
656,0.0012962109375000003
659,150.57635159438246
660,0.0012962109375000003
663,511.9289141237805
664,0.020739375000000004
667,511.9289141237805
668,0.020739375000000004
671,331.2175638742017
672,0.0034439604492187506
675,331.2175638742017
676,0.0034439604492187506
677,2635.319379694
691,41.181819268142455
692,46.032
693,1014.140550824625
768,1.9660658272434235
769,1.9660658272434235
770,0.12998674
798,951.094649972966
2,1, 1,15, 0,16, 0.00,60.00,WinterDesignDay
7,-3.0
8,21.00013446279415
143,21.00013446279415
206,17.999725473895097
269,17.999725473895097
332,20.999802620420347
395,20.999802620420347
458,17.9989346468842
521,17.9989346468842
584,46.032
647,324.970978745682
648,0.004061460937500001
651,324.970978745682
652,0.004061460937500001
655,150.57630848837942
656,0.0012962109375000003
659,150.57630848837942
660,0.0012962109375000003
663,511.92874925231666
664,0.020739375000000004
667,511.92874925231666
668,0.020739375000000004
671,331.1200937672238
672,0.0034421601562500004
675,331.1200937672238
676,0.0034421601562500004
677,2635.0949356639157
691,41.182232346769084
692,46.032
693,1014.0541788296202
768,1.9660661548091527
769,1.9660661548091527
770,0.12998674
798,951.0945744681227
2,1, 1,15, 0,17, 0.00,60.00,WinterDesignDay
7,-3.0
8,21.00013555069077
143,21.00013555069077
206,17.999721175380653
269,17.999721175380653
332,20.999796897458594
395,20.999796897458594
458,17.999437790335453
521,17.999437790335453
584,46.032
647,324.9709601337727
648,0.004061460937500001
651,324.9709601337727
652,0.004061460937500001
655,150.57631707089482
656,0.0012962109375000003
659,150.57631707089482
660,0.0012962109375000003
663,511.9288567239218
664,0.020739375000000004
667,511.9288567239218
668,0.020739375000000004
671,331.22185868181765
672,0.0034439604492187506
675,331.22185868181765
676,0.0034439604492187506
677,2635.299749190285
691,41.1818553971565
692,46.032
693,1014.1329964879465
768,1.9660658558932527
769,1.9660658558932527
770,0.12998674
798,951.0945544093349
2,1, 1,15, 0,18, 0.00,60.00,WinterDesignDay
7,-3.0
8,21.000135571911578
143,21.000135571911578
206,17.99971875741471
269,17.99971875741471
332,20.99979477013511
395,20.99979477013511
458,17.999444138878896
521,17.999444138878896
584,46.032
647,324.97096106981877
648,0.004061460937500001
651,324.97096106981877
652,0.004061460937500001
655,150.57632512291244
656,0.0012962109375000003
659,150.57632512291244
660,0.0012962109375000003
663,511.928874741053
664,0.020739375000000004
667,511.928874741053
668,0.020739375000000004
671,331.22227974187604
672,0.0034439604492187506
675,331.22227974187604
676,0.0034439604492187506
677,2635.301091921943
691,41.18185292592236
692,46.032
693,1014.1335132065778
768,1.966065853933597
769,1.966065853933597
770,0.12998674
798,951.0945723854624
2,1, 1,15, 0,19, 0.00,60.00,WinterDesignDay
7,-3.0
8,21.000134918938492
143,21.000134918938492
206,17.999717014445054
269,17.999717014445054
332,20.999794068952447
395,20.999794068952447
458,17.999405781616403
521,17.999405781616403
584,46.032
647,324.97096787882884
648,0.004061460937500001
651,324.97096787882884
652,0.004061460937500001
655,150.57633368769578
656,0.0012962109375000003
659,150.57633368769578
660,0.0012962109375000003
663,511.92885671092824
664,0.020739375000000004
667,511.92885671092824
668,0.020739375000000004
671,331.224320408485
672,0.0034439604492187506
675,331.224320408485
676,0.0034439604492187506
677,2635.3051415848945
691,41.18184547270914
692,46.032
693,1014.1350716239172
768,1.9660658480232978
769,1.9660658480232978
770,0.12998674
798,951.0946031330493
2,1, 1,15, 0,20, 0.00,60.00,WinterDesignDay
7,-3.0
8,21.000134057320047
143,21.000134057320047
206,17.99971785585757
269,17.99971785585757
332,20.99979813627183
395,20.99979813627183
458,17.999523746570762
521,17.999523746570762
584,46.032
647,324.9709768869187
648,0.004061460937500001
651,324.9709768869187
652,0.004061460937500001
655,150.5763507289415
656,0.0012962109375000003
659,150.5763507289415
660,0.0012962109375000003
663,511.9288969108513
664,0.020739375000000004
667,511.9288969108513
668,0.020739375000000004
671,331.21920216454845
672,0.0034439604492187506
675,331.21920216454845
676,0.0034439604492187506
677,2635.2941604432563
691,41.18186568298118
692,46.032
693,1014.1308457903748
768,1.966065864049774
769,1.966065864049774
770,0.12998674
798,951.0946552317205
2,1, 1,15, 0,21, 0.00,60.00,WinterDesignDay
7,-3.0
8,21.000134878450854
143,21.000134878450854
206,17.999725497161613
269,17.999725497161613
332,20.999800777809575
395,20.999800777809575
458,17.999238148040146
521,17.999238148040146
584,46.032
647,324.9709749788908
648,0.004061460937500001
651,324.9709749788908
652,0.004061460937500001
655,150.57629654259023
656,0.0012962109375000003
659,150.57629654259023
660,0.0012962109375000003
663,511.92873066768897
664,0.020739375000000004
667,511.92873066768897
668,0.020739375000000004
671,331.22788245579585
672,0.0034439604492187506
675,331.22788245579585
676,0.0034439604492187506
677,2635.283863019681
691,41.18188463490246
692,46.032
693,1014.126883069614
768,1.966065879078396
769,1.966065879078396
770,0.12998674
798,951.0945430429621
2,1, 1,15, 0,22, 0.00,60.00,WinterDesignDay
7,-3.0
8,21.00013549618112
143,21.00013549618112
206,17.999721287984414
269,17.999721287984414
332,20.99979756788994
395,20.99979756788994
458,17.999077917208485
521,17.999077917208485
584,46.032
647,324.9709608450751
648,0.004061460937500001
651,324.9709608450751
652,0.004061460937500001
655,150.57631962749275
656,0.0012962109375000003
659,150.57631962749275
660,0.0012962109375000003
663,511.92884769180637
664,0.020739375000000004
667,511.92884769180637
668,0.020739375000000004
671,331.1167411484115
672,0.0034421601562500004
675,331.1167411484115
676,0.0034421601562500004
677,2635.1164025468665
691,41.182192837985866
692,46.032
693,1014.062439853566
768,1.9660661234792125
769,1.9660661234792125
770,0.12998674
798,951.0945609451358
2,1, 1,15, 0,23, 0.00,60.00,WinterDesignDay
7,-3.0
8,21.000135336500588
143,21.000135336500588
206,17.999718210701037
269,17.999718210701037
332,20.999795035711816
395,20.999795035711816
458,17.999440541356897
521,17.999440541356897
584,46.032
647,324.9709605597726
648,0.004061460937500001
651,324.9709605597726
652,0.004061460937500001
655,150.57633261108703
656,0.0012962109375000003
659,150.57633261108703
660,0.0012962109375000003
663,511.9288911830622
664,0.020739375000000004
667,511.9288911830622
668,0.020739375000000004
671,331.2218644492754
672,0.0034439604492187506
675,331.2218644492754
676,0.0034439604492187506
677,2635.2999096648314
691,41.18185510181068
692,46.032
693,1014.1330582427931
768,1.9660658556590478
769,1.9660658556590478
770,0.12998674
798,951.0945863417193
2,1, 1,15, 0,24, 0.00,60.00,WinterDesignDay
7,-3.0
8,21.000134851355284
143,21.000134851355284
206,17.99971565729811
269,17.99971565729811
332,20.99979329444405
395,20.99979329444405
458,17.99944099518548
521,17.99944099518548
584,46.032
647,324.9709690276294
648,0.004061460937500001
651,324.9709690276294
652,0.004061460937500001
655,150.57634196894156
656,0.0012962109375000003
659,150.57634196894156
660,0.0012962109375000003
663,511.92890550939654
664,0.020739375000000004
667,511.92890550939654
668,0.020739375000000004
671,331.22231752182967
672,0.0034439604492187506
675,331.22231752182967
676,0.0034439604492187506
677,2635.3012780159006
691,41.181852583425226
692,46.032
693,1014.1335848204512
768,1.9660658536620015
769,1.9660658536620015
770,0.12998674
798,951.094621993142
End of Data
 Number of Records Written=         816
