Program Version,EnergyPlus, Version 24.2.0-94a887817b, YMD=2025.06.28 13:51
1,5,Environment Title[],Latitude[deg],Longitude[deg],Time Zone[],Elevation[m]
2,8,Day of Simulation[],Month[],Day of Month[],DST Indicator[1=yes 0=no],Hour[],StartMinute[],EndMinute[],DayType
3,5,Cumulative Day of Simulation[],Month[],Day of Month[],DST Indicator[1=yes 0=no],DayType  ! When Daily Report Variables Requested
4,2,Cumulative Days of Simulation[],Month[]  ! When Monthly Report Variables Requested
5,1,Cumulative Days of Simulation[] ! When Run Period Report Variables Requested
6,1,Calendar Year of Simulation[] ! When Annual Report Variables Requested
7,1,Z1,Zone Air Temperature [C] !Hourly
142,1,Z2,Zone Air Temperature [C] !Hourly
205,1,Z3,Zone Air Temperature [C] !Hourly
268,1,Z4,Zone Air Temperature [C] !Hourly
393,1,Z1 RADIATOR,Baseboard Total Heating Rate [W] !Hourly
396,1,Z2 RADIATOR,Baseboard Total Heating Rate [W] !Hourly
399,1,Z3 RADIATOR,Baseboard Total Heating Rate [W] !Hourly
402,1,Z4 RADIATOR,Baseboard Total Heating Rate [W] !Hourly
403,1,HEAT PUMP,Heat Pump Load Side Heat Transfer Rate [W] !Hourly
417,1,HEAT PUMP,Heat Pump Electricity Rate [W] !Hourly
492,1,SUPPLY PUMP,Pump Electricity Rate [W] !Hourly
493,1,SUPPLY PUMP,Pump Fluid Heat Gain Rate [W] !Hourly
End of Data Dictionary
1,WINTER DESIGN DAY IN (MID) UK,  53.35,  -2.28,   0.00,  69.00
2,1, 1,15, 0, 1, 0.00,60.00,WinterDesignDay
7,19.660116511541265
142,19.660116511541265
205,17.9997037533156
268,17.9997037533156
393,449.2315077029803
396,449.2315077029803
399,358.96387957688137
402,358.96387957688137
403,1612.1381893720616
417,460.61091124916044
492,4.041467295154129
493,4.041467295154129
2,1, 1,15, 0, 2, 0.00,60.00,WinterDesignDay
7,19.66011674942407
142,19.66011674942407
205,18.000092116857978
268,18.000092116857978
393,449.2314902197976
396,449.2314902197976
399,359.1155288821877
402,359.1155288821877
403,1612.4283936269196
417,460.6938267505485
492,4.041704236289778
493,4.041704236289778
2,1, 1,15, 0, 3, 0.00,60.00,WinterDesignDay
7,19.660118124783516
142,19.660118124783516
205,17.99985675194796
268,17.99985675194796
393,449.2314946871385
396,449.2314946871385
399,359.11798800076076
402,359.11798800076076
403,1612.4198687029098
417,460.6913910579742
492,4.041704250745334
493,4.041704250745334
2,1, 1,15, 0, 4, 0.00,60.00,WinterDesignDay
7,19.660117773351548
142,19.660117773351548
205,17.99960317480494
268,17.99960317480494
393,449.23149028598755
396,449.23149028598755
399,358.96572448831165
402,358.96572448831165
403,1612.1418033784732
417,460.6119438224209
492,4.0414672890259284
493,4.0414672890259284
2,1, 1,15, 0, 5, 0.00,60.00,WinterDesignDay
7,19.660118119580783
142,19.660118119580783
205,17.999902191208353
268,17.999902191208353
393,449.2315107278837
396,449.2315107278837
399,359.11701261991357
402,359.11701261991357
403,1612.4178414687206
417,460.69081184820584
492,4.041704254182878
493,4.041704254182878
2,1, 1,15, 0, 6, 0.00,60.00,WinterDesignDay
7,19.660116511471337
142,19.660116511471337
205,17.999703753241356
268,17.999703753241356
393,449.23150770389685
396,449.23150770389685
399,358.9638795776272
402,358.9638795776272
403,1612.1381893753844
417,460.6109112501099
492,4.041467295154123
493,4.041467295154123
2,1, 1,15, 0, 7, 0.00,60.00,WinterDesignDay
7,19.660116749362118
142,19.660116749362118
205,18.000092116791922
268,18.000092116791922
393,449.2314902206096
396,449.2314902206096
399,359.1155288828488
402,359.1155288828488
403,1612.4283936298716
417,460.69382675139184
492,4.041704236289773
493,4.041704236289773
2,1, 1,15, 0, 8, 0.00,60.00,WinterDesignDay
7,19.66011812472864
142,19.66011812472864
205,17.99985675188944
268,17.99985675188944
393,449.23149468785937
396,449.23149468785937
399,359.11798800134574
402,359.11798800134574
403,1612.4198687055202
417,460.6913910587201
492,4.04170425074533
493,4.04170425074533
2,1, 1,15, 0, 9, 0.00,60.00,WinterDesignDay
7,19.66011777330292
142,19.66011777330292
205,17.999603174753123
268,17.999603174753123
393,449.2314902866239
396,449.2314902866239
399,358.96572448882876
402,358.96572448882876
403,1612.1418033807793
417,460.6119438230798
492,4.041467289025925
493,4.041467289025925
2,1, 1,15, 0,10, 0.00,60.00,WinterDesignDay
7,19.660118119537692
142,19.660118119537692
205,17.999902191162533
268,17.999902191162533
393,449.2315107284479
396,449.2315107284479
399,359.117012620371
402,359.117012620371
403,1612.4178414707662
417,460.6908118487903
492,4.041704254182874
493,4.041704254182874
2,1, 1,15, 0,11, 0.00,60.00,WinterDesignDay
7,19.660116511433166
142,19.660116511433166
205,17.99970375320083
268,17.99970375320083
393,449.23150770439736
396,449.23150770439736
399,358.96387957803404
402,358.96387957803404
403,1612.138189377213
417,460.6109112506323
492,4.04146729515412
493,4.04146729515412
2,1, 1,15, 0,12, 0.00,60.00,WinterDesignDay
7,19.660116749328303
142,19.660116749328303
205,18.000092116755855
268,18.000092116755855
393,449.2314902210521
396,449.2314902210521
399,359.11552888320966
402,359.11552888320966
403,1612.4283936314787
417,460.6938267518511
492,4.041704236289769
493,4.041704236289769
2,1, 1,15, 0,13, 0.00,60.00,WinterDesignDay
7,19.660118124698666
142,19.660118124698666
205,17.999856751857493
268,17.999856751857493
393,449.2314946882497
396,449.2314946882497
399,359.11798800166554
402,359.11798800166554
403,1612.4198687069438
417,460.69139105912683
492,4.041704250745327
493,4.041704250745327
2,1, 1,15, 0,14, 0.00,60.00,WinterDesignDay
7,19.66011777327637
142,19.66011777327637
205,17.999603174724832
268,17.999603174724832
393,449.2314902869715
396,449.2314902869715
399,358.9657244891113
402,358.9657244891113
403,1612.141803382055
417,460.6119438234442
492,4.041467289025923
493,4.041467289025923
2,1, 1,15, 0,15, 0.00,60.00,WinterDesignDay
7,19.660118119514163
142,19.660118119514163
205,17.99990219113752
268,17.99990219113752
393,449.23151072875555
396,449.23151072875555
399,359.117012620621
402,359.117012620621
403,1612.41784147189
417,460.69081184911136
492,4.041704254182871
493,4.041704254182871
2,1, 1,15, 0,16, 0.00,60.00,WinterDesignDay
7,19.660116511412323
142,19.660116511412323
205,17.999703753178704
268,17.999703753178704
393,449.2315077046699
396,449.2315077046699
399,358.9638795782564
402,358.9638795782564
403,1612.138189378206
417,460.61091125091605
492,4.041467295154119
493,4.041467295154119
2,1, 1,15, 0,17, 0.00,60.00,WinterDesignDay
7,19.660116749309836
142,19.660116749309836
205,18.00009211673617
268,18.00009211673617
393,449.23149022129434
396,449.23149022129434
399,359.1155288834062
402,359.1155288834062
403,1612.4283936323654
417,460.69382675210437
492,4.041704236289768
493,4.041704236289768
2,1, 1,15, 0,18, 0.00,60.00,WinterDesignDay
7,19.660118124682317
142,19.660118124682317
205,17.99985675184006
268,17.99985675184006
393,449.2314946884653
396,449.2314946884653
399,359.11798800183965
402,359.11798800183965
403,1612.4198687077298
417,460.69139105935136
492,4.041704250745326
493,4.041704250745326
2,1, 1,15, 0,19, 0.00,60.00,WinterDesignDay
7,19.660117773261877
142,19.660117773261877
205,17.999603174709403
268,17.999603174709403
393,449.2314902871614
396,449.2314902871614
399,358.9657244892653
402,358.9657244892653
403,1612.141803382736
417,460.61194382363885
492,4.041467289025921
493,4.041467289025921
2,1, 1,15, 0,20, 0.00,60.00,WinterDesignDay
7,19.660118119501327
142,19.660118119501327
205,17.99990219112388
268,17.99990219112388
393,449.2315107289237
396,449.2315107289237
399,359.1170126207574
402,359.1170126207574
403,1612.4178414724997
417,460.6908118492857
492,4.041704254182871
493,4.041704254182871
2,1, 1,15, 0,21, 0.00,60.00,WinterDesignDay
7,19.66011651140095
142,19.66011651140095
205,17.99970375316664
268,17.99970375316664
393,449.231507704819
396,449.231507704819
399,358.9638795783775
402,358.9638795783775
403,1612.1381893787411
417,460.6109112510689
492,4.041467295154118
493,4.041467295154118
2,1, 1,15, 0,22, 0.00,60.00,WinterDesignDay
7,19.66011674929976
142,19.66011674929976
205,18.000092116725433
268,18.000092116725433
393,449.2314902214264
396,449.2314902214264
399,359.11552888351366
402,359.11552888351366
403,1612.4283936328452
417,460.6938267522415
492,4.0417042362897675
493,4.0417042362897675
2,1, 1,15, 0,23, 0.00,60.00,WinterDesignDay
7,19.660118124673385
142,19.660118124673385
205,17.999856751830546
268,17.999856751830546
393,449.23149468858117
396,449.23149468858117
399,359.1179880019348
402,359.1179880019348
403,1612.4198687081582
417,460.69139105947374
492,4.041704250745325
493,4.041704250745325
2,1, 1,15, 0,24, 0.00,60.00,WinterDesignDay
7,19.660117773253976
142,19.660117773253976
205,17.999603174700976
268,17.999603174700976
393,449.2314902872659
396,449.2314902872659
399,358.9657244893492
402,358.9657244893492
403,1612.141803383117
417,460.61194382374777
492,4.0414672890259205
493,4.0414672890259205
End of Data
 Number of Records Written=         288
