Program Version,EnergyPlus, Version 24.2.0-94a887817b, YMD=2026.01.14 16:17
1,5,Environment Title[],Latitude[deg],Longitude[deg],Time Zone[],Elevation[m]
2,8,Day of Simulation[],Month[],Day of Month[],DST Indicator[1=yes 0=no],Hour[],StartMinute[],EndMinute[],DayType
3,5,Cumulative Day of Simulation[],Month[],Day of Month[],DST Indicator[1=yes 0=no],DayType  ! When Daily Report Variables Requested
4,2,Cumulative Days of Simulation[],Month[]  ! When Monthly Report Variables Requested
5,1,Cumulative Days of Simulation[] ! When Run Period Report Variables Requested
6,1,Calendar Year of Simulation[] ! When Annual Report Variables Requested
7,1,Environment,Site Outdoor Air Drybulb Temperature [C] !Hourly
8,1,Z1,Zone Operative Temperature [C] !Hourly
9,1,Z2,Zone Operative Temperature [C] !Hourly
10,1,Z3,Zone Operative Temperature [C] !Hourly
11,1,Z4,Zone Operative Temperature [C] !Hourly
12,1,Z1,Zone Air Temperature [C] !Hourly
147,1,Z2,Zone Air Temperature [C] !Hourly
210,1,Z3,Zone Air Temperature [C] !Hourly
273,1,Z4,Zone Air Temperature [C] !Hourly
336,1,HOT WATER LOOP,Plant Supply Side Outlet Temperature [C] !Hourly
399,1,Z1 RADIATOR,Baseboard Total Heating Rate [W] !Hourly
400,1,Z1 RADIATOR,Baseboard Hot Water Mass Flow Rate [kg/s] !Hourly
403,1,Z2 RADIATOR,Baseboard Total Heating Rate [W] !Hourly
404,1,Z2 RADIATOR,Baseboard Hot Water Mass Flow Rate [kg/s] !Hourly
407,1,Z3 RADIATOR,Baseboard Total Heating Rate [W] !Hourly
408,1,Z3 RADIATOR,Baseboard Hot Water Mass Flow Rate [kg/s] !Hourly
411,1,Z4 RADIATOR,Baseboard Total Heating Rate [W] !Hourly
412,1,Z4 RADIATOR,Baseboard Hot Water Mass Flow Rate [kg/s] !Hourly
413,1,HEAT PUMP,Heat Pump Load Side Heat Transfer Rate [W] !Hourly
427,1,HEAT PUMP,Heat Pump Load Side Inlet Temperature [C] !Hourly
428,1,HEAT PUMP,Heat Pump Electricity Rate [W] !Hourly
503,1,SUPPLY PUMP,Pump Electricity Rate [W] !Hourly
504,1,SUPPLY PUMP,Pump Fluid Heat Gain Rate [W] !Hourly
505,1,SUPPLY PUMP,Pump Mass Flow Rate [kg/s] !Hourly
533,1,Baseboard Total Heating Rate All Zones,PythonPlugin:OutputVariable [W] !Hourly
End of Data Dictionary
1,WINTER DESIGN DAY IN (MID) UK,  53.35,  -2.28,   0.00,  69.00
2,1, 1,15, 0, 1, 0.00,60.00,WinterDesignDay
7,-3.0
8,19.011674921750156
9,19.011674921750156
10,17.999616654713012
11,17.999616654713012
12,21.000977884479862
147,21.000977884479862
210,19.66825302183659
273,19.66825302183659
336,52.94996601166053
399,498.08873664639685
400,0.029496
403,498.08873664639685
404,0.029496
407,425.833726580822
408,0.007085953125000001
411,425.833726580822
412,0.007085953125000001
413,1845.3041468383021
427,49.554510901831165
428,826.5356411882523
503,1.9730914413767189
504,1.9730914413767189
505,0.12998674
533,1847.8449264544374
2,1, 1,15, 0, 2, 0.00,60.00,WinterDesignDay
7,-3.0
8,19.011554095317493
9,19.011554095317493
10,17.999518237922715
11,17.999518237922715
12,21.000857444055796
147,21.000857444055796
210,19.668155651154333
273,19.668155651154333
336,52.94981197562029
399,498.0882209646311
400,0.029496
403,498.0882209646311
404,0.029496
407,425.832996608738
408,0.007085953125000001
411,425.832996608738
412,0.007085953125000001
413,1845.3024836765342
427,49.554359900696355
428,826.5323041581233
503,1.9730913087176412
504,1.9730913087176412
505,0.12998674
533,1847.8424351467381
2,1, 1,15, 0, 3, 0.00,60.00,WinterDesignDay
7,-3.0
8,19.01143919679506
9,19.01143919679506
10,17.999422778272393
11,17.999422778272393
12,21.000743664269727
147,21.000743664269727
210,19.668061903807317
273,19.668061903807317
336,52.94967707660089
399,498.08790060241483
400,0.029496
403,498.08790060241483
404,0.029496
407,425.832467380824
408,0.007085953125000001
411,425.832467380824
412,0.007085953125000001
413,1845.301565843311
427,49.554226672454206
428,826.5296230055505
503,1.9730911916726037
504,1.9730911916726037
505,0.12998674
533,1847.8407359664777
2,1, 1,15, 0, 4, 0.00,60.00,WinterDesignDay
7,-3.0
8,19.01133021358235
9,19.01133021358235
10,17.999330641830973
11,17.999330641830973
12,21.000636457164507
147,21.000636457164507
210,19.66797206729193
273,19.66797206729193
336,52.94956025065495
399,498.0877601884058
400,0.029496
403,498.0877601884058
404,0.029496
407,425.83212115914876
408,0.007085953125000001
411,425.83212115914876
412,0.007085953125000001
413,1845.301327430802
427,49.55411026742164
428,826.527550302753
503,1.9730910894072757
504,1.9730910894072757
505,0.12998674
533,1847.8397626951091
2,1, 1,15, 0, 5, 0.00,60.00,WinterDesignDay
7,-3.0
8,19.011227114204353
9,19.011227114204353
10,17.999242131352453
11,17.999242131352453
12,21.000535720431188
147,21.000535720431188
210,19.667886381774093
273,19.667886381774093
336,52.94946044813276
399,498.087784794648
400,0.029496
403,498.087784794648
404,0.029496
407,425.83194122110274
408,0.007085953125000001
411,425.83194122110274
412,0.007085953125000001
413,1845.301708311784
427,49.554009746550584
428,826.5260414527256
503,1.9730910010966705
504,1.9730910010966705
505,0.12998674
533,1847.8394520315017
2,1, 1,15, 0, 6, 0.00,60.00,WinterDesignDay
7,-3.0
8,19.011129850084608
9,19.011129850084608
10,17.999157551825927
11,17.999157551825927
12,21.00044133830426
147,21.00044133830426
210,19.66780514059593
273,19.66780514059593
336,52.94937663608456
399,498.0879601527863
400,0.029496
403,498.0879601527863
404,0.029496
407,425.8319106986523
408,0.007085953125000001
411,425.8319106986523
412,0.007085953125000001
413,1845.3026452539175
427,49.55392419337781
428,826.5250507494966
503,1.9730909259356442
504,1.9730909259356442
505,0.12998674
533,1847.8397417028773
2,1, 1,15, 0, 7, 0.00,60.00,WinterDesignDay
7,-3.0
8,19.011063787895452
9,19.011063787895452
10,18.000053982284143
11,18.000053982284143
12,21.000369339928348
147,21.000369339928348
210,19.669372703429516
273,19.669372703429516
336,52.949307800283734
399,498.08818429223436
400,0.029496
403,498.08818429223436
404,0.029496
407,426.0072745287346
408,0.0071003554687500015
411,426.0072745287346
412,0.0071003554687500015
413,1845.6545481030967
427,49.55320772272543
428,826.6815122099744
503,1.9730902964953774
504,1.9730902964953774
505,0.12998674
533,1848.1909176419379
2,1, 1,15, 0, 8, 0.00,60.00,WinterDesignDay
7,-3.0
8,19.01102106787546
9,19.01102106787546
10,17.99938649302564
11,17.99938649302564
12,21.000325152759313
147,21.000325152759313
210,19.668080623994204
273,19.668080623994204
336,52.94924928566918
399,498.087886323376
400,0.029496
403,498.087886323376
404,0.029496
407,425.8272770268412
408,0.007085953125000001
411,425.8272770268412
412,0.007085953125000001
413,1845.2942299116212
427,49.55381231075338
428,826.5191384442116
503,1.9730908276434143
504,1.9730908276434143
505,0.12998674
533,1847.8303267004344
2,1, 1,15, 0, 9, 0.00,60.00,WinterDesignDay
7,-3.0
8,19.010953249549893
9,19.010953249549893
10,17.999212833816042
11,17.999212833816042
12,21.000262055674817
147,21.000262055674817
210,19.66786207627098
273,19.66786207627098
336,52.94919852992674
399,498.08805598036895
400,0.029496
403,498.08805598036895
404,0.029496
407,425.8287411046363
408,0.007085953125000001
411,425.8287411046363
412,0.007085953125000001
413,1845.2977256136792
427,49.55375511640508
428,826.5198500890469
503,1.9730907773964736
504,1.9730907773964736
505,0.12998674
533,1847.8335941700107
2,1, 1,15, 0,10, 0.00,60.00,WinterDesignDay
7,-3.0
8,19.01089361812763
9,19.01089361812763
10,18.000001188124624
11,18.000001188124624
12,21.000201501924554
147,21.000201501924554
210,19.669350219028416
273,19.669350219028416
336,52.94915793803094
399,498.0884413731736
400,0.029496
403,498.0884413731736
404,0.029496
407,426.0060716910217
408,0.0071003554687500015
411,426.0060716910217
412,0.0071003554687500015
413,1845.6553212910367
427,49.55305641599682
428,826.6793361372556
503,1.9730901635679872
504,1.9730901635679872
505,0.12998674
533,1848.1890261283907
2,1, 1,15, 0,11, 0.00,60.00,WinterDesignDay
7,-3.0
8,19.010875624742017
9,19.010875624742017
10,17.99936794801273
11,17.99936794801273
12,21.000180119469515
147,21.000180119469515
210,19.668031716813793
273,19.668031716813793
336,52.949125900170216
399,498.0883169123862
400,0.029496
403,498.0883169123862
404,0.029496
407,425.8259314620488
408,0.007085953125000001
411,425.8259314620488
412,0.007085953125000001
413,1845.291990851378
427,49.553693024469055
428,826.5160592672784
503,1.9730907228468588
504,1.9730907228468588
505,0.12998674
533,1847.82849674887
2,1, 1,15, 0,12, 0.00,60.00,WinterDesignDay
7,-3.0
8,19.010823217649666
9,19.010823217649666
10,17.999204690204085
11,17.999204690204085
12,21.000133225460374
147,21.000133225460374
210,19.667853524702366
273,19.667853524702366
336,52.949098146166186
399,498.08854492480395
400,0.029496
403,498.08854492480395
404,0.029496
407,425.82734105422867
408,0.007085953125000001
411,425.82734105422867
412,0.007085953125000001
413,1845.296704095692
427,49.55365659174541
428,826.5177033185952
503,1.9730906908396277
504,1.9730906908396277
505,0.12998674
533,1847.831771958065
2,1, 1,15, 0,13, 0.00,60.00,WinterDesignDay
7,-3.0
8,19.01079014260634
9,19.01079014260634
10,18.00004891616962
11,18.00004891616962
12,21.000096741879034
147,21.000096741879034
210,19.669366442937687
273,19.669366442937687
336,52.949077897450756
399,498.0889345728085
400,0.029496
403,498.0889345728085
404,0.029496
407,426.00422246197604
408,0.0071003554687500015
411,426.00422246197604
412,0.0071003554687500015
413,1845.6518292772714
427,49.55298278770595
428,826.6764248950822
503,1.973090098883383
504,1.973090098883383
505,0.12998674
533,1848.186314069569
2,1, 1,15, 0,14, 0.00,60.00,WinterDesignDay
7,-3.0
8,19.010773681651504
9,19.010773681651504
10,17.99934918201228
11,17.99934918201228
12,21.000080893726555
147,21.000080893726555
210,19.668043571560503
273,19.668043571560503
336,52.949062421212034
399,498.08884668854284
400,0.029496
403,498.08884668854284
404,0.029496
407,425.82524826335884
408,0.007085953125000001
411,425.82524826335884
412,0.007085953125000001
413,1845.293781355365
427,49.55362623879557
428,826.5157930412398
503,1.9730906641736592
504,1.9730906641736592
505,0.12998674
533,1847.8281899038034
2,1, 1,15, 0,15, 0.00,60.00,WinterDesignDay
7,-3.0
8,19.010727979527907
9,19.010727979527907
10,17.999636899745248
11,17.999636899745248
12,21.0000415652895
147,21.0000415652895
210,19.668769786398425
273,19.668769786398425
336,52.94905026474185
399,498.0892364255356
400,0.029496
403,498.0892364255356
404,0.029496
407,426.02330645188476
408,0.00710035546875
411,426.02330645188476
412,0.00710035546875
413,1845.6403867999136
427,49.552976206871605
428,826.6708346419894
503,1.9730900931019386
504,1.9730900931019386
505,0.12998674
533,1848.2250857548406
2,1, 1,15, 0,16, 0.00,60.00,WinterDesignDay
7,-3.0
8,19.010717812308865
9,19.010717812308865
10,17.99962509976404
11,17.99962509976404
12,21.000024731405652
147,21.000024731405652
210,19.66848232052693
273,19.66848232052693
336,52.94904430487278
399,498.0895794668469
400,0.029496
403,498.0895794668469
404,0.029496
407,425.80809836805696
408,0.007085953125000001
411,425.80809836805696
412,0.007085953125000001
413,1845.3116469717088
427,49.553575240893096
428,826.5234902768166
503,1.9730906193704936
504,1.9730906193704936
505,0.12998674
533,1847.7953556698076
2,1, 1,15, 0,17, 0.00,60.00,WinterDesignDay
7,-3.0
8,19.010695661631765
9,19.010695661631765
10,17.999272969287915
11,17.999272969287915
12,21.000007517871676
147,21.000007517871676
210,19.667950781564162
273,19.667950781564162
336,52.94904043211521
399,498.08965162658797
400,0.029496
403,498.08965162658797
404,0.029496
407,425.8250044563283
408,0.007085953125000001
411,425.8250044563283
412,0.007085953125000001
413,1845.2954473825573
427,49.553601184122385
428,826.5161692372315
503,1.9730906421623846
504,1.9730906421623846
505,0.12998674
533,1847.8293121658326
2,1, 1,15, 0,18, 0.00,60.00,WinterDesignDay
7,-3.0
8,19.010666083129287
9,19.010666083129287
10,18.00000505439377
11,18.00000505439377
12,20.9999787544695
147,20.9999787544695
210,19.66935947779873
273,19.66935947779873
336,52.94903985219505
399,498.09014829927344
400,0.029496
403,498.09014829927344
404,0.029496
407,426.0043041763148
408,0.0071003554687500015
411,426.0043041763148
412,0.0071003554687500015
413,1845.65675422376
427,49.55293566951336
428,826.6779904419693
503,1.9730900574886767
504,1.9730900574886767
505,0.12998674
533,1848.1889049511767
2,1, 1,15, 0,19, 0.00,60.00,WinterDesignDay
7,-3.0
8,19.01067189847651
9,19.01067189847651
10,17.999346304853294
11,17.999346304853294
12,20.999982708629986
147,20.999982708629986
210,19.668014001897333
273,19.668014001897333
336,52.949042932814464
399,498.09016342607924
400,0.029496
403,498.09016342607924
404,0.029496
407,425.82501270589205
408,0.007085953125000001
411,425.82501270589205
412,0.007085953125000001
413,1845.2952149207908
427,49.553604112563335
428,826.5161071975277
503,1.9730906447351073
504,1.9730906447351073
505,0.12998674
533,1847.830352263943
2,1, 1,15, 0,20, 0.00,60.00,WinterDesignDay
7,-3.0
8,19.010639811748945
9,19.010639811748945
10,17.999649750965652
11,17.999649750965652
12,20.99995731723016
147,20.99995731723016
210,19.668784935244055
273,19.668784935244055
336,52.949046329037536
399,498.09053284490994
400,0.029496
403,498.09053284490994
404,0.029496
407,426.0228547675272
408,0.00710035546875
411,426.0228547675272
412,0.00710035546875
413,1845.6425744090125
427,49.55296824585304
428,826.67174825752
503,1.9730900861079492
504,1.9730900861079492
505,0.12998674
533,1848.226775224874
2,1, 1,15, 0,21, 0.00,60.00,WinterDesignDay
7,-3.0
8,19.01064094764664
9,19.01064094764664
10,17.999628834895816
11,17.999628834895816
12,20.999952276436773
147,20.999952276436773
210,19.668489449768842
273,19.668489449768842
336,52.94905361582331
399,498.09088644565725
400,0.029496
403,498.09088644565725
404,0.029496
407,425.80807484145424
408,0.007085953125000001
411,425.80807484145424
412,0.007085953125000001
413,1845.3147178697907
427,49.55357890123201
428,826.5250224282643
503,1.9730906225862102
504,1.9730906225862102
505,0.12998674
533,1847.7979225742229
2,1, 1,15, 0,22, 0.00,60.00,WinterDesignDay
7,-3.0
8,19.010628331480028
9,19.010628331480028
10,17.99927043201314
11,17.99927043201314
12,20.99994501028278
147,20.99994501028278
210,19.667951826182524
273,19.667951826182524
336,52.9490611313084
399,498.090975521958
400,0.029496
403,498.090975521958
404,0.029496
407,425.8252322938515
408,0.007085953125000001
411,425.8252322938515
412,0.007085953125000001
413,1845.2989910296892
427,49.55361536282121
428,826.5181047728286
503,1.9730906546187927
504,1.9730906546187927
505,0.12998674
533,1847.832415631619
2,1, 1,15, 0,23, 0.00,60.00,WinterDesignDay
7,-3.0
8,19.010607015229425
9,19.010607015229425
10,17.999998808835887
11,17.999998808835887
12,20.999924749464004
147,20.999924749464004
210,19.669357005211673
273,19.669357005211673
336,52.94907038009933
399,498.09148952432776
400,0.029496
403,498.09148952432776
404,0.029496
407,426.00471146944403
408,0.0071003554687500015
411,426.00471146944403
412,0.0071003554687500015
413,1845.660636303483
427,49.55295906107531
428,826.6802430547564
503,1.973090078038847
504,1.973090078038847
505,0.12998674
533,1848.1924019875435
2,1, 1,15, 0,24, 0.00,60.00,WinterDesignDay
7,-3.0
8,19.010620261588894
9,19.010620261588894
10,17.99933839311819
11,17.99933839311819
12,20.999936345846955
147,20.999936345846955
210,19.66801030757011
273,19.66801030757011
336,52.94908194699108
399,498.09151613249065
400,0.029496
403,498.09151613249065
404,0.029496
407,425.82554997954514
408,0.007085953125000001
411,425.82554997954514
412,0.007085953125000001
413,1845.299325365227
427,49.55363556330918
428,826.5186048035331
503,1.9730906723655217
504,1.9730906723655217
505,0.12998674
533,1847.8341322240713
End of Data
 Number of Records Written=         600
