Program Version,EnergyPlus, Version 24.2.0-94a887817b, YMD=2025.06.30 12:52
1,5,Environment Title[],Latitude[deg],Longitude[deg],Time Zone[],Elevation[m]
2,8,Day of Simulation[],Month[],Day of Month[],DST Indicator[1=yes 0=no],Hour[],StartMinute[],EndMinute[],DayType
3,5,Cumulative Day of Simulation[],Month[],Day of Month[],DST Indicator[1=yes 0=no],DayType  ! When Daily Report Variables Requested
4,2,Cumulative Days of Simulation[],Month[]  ! When Monthly Report Variables Requested
5,1,Cumulative Days of Simulation[] ! When Run Period Report Variables Requested
6,1,Calendar Year of Simulation[] ! When Annual Report Variables Requested
7,1,Z1,Zone Air Temperature [C] !Hourly
142,1,Z2,Zone Air Temperature [C] !Hourly
205,1,Z3,Zone Air Temperature [C] !Hourly
268,1,Z4,Zone Air Temperature [C] !Hourly
393,1,Z1 RADIATOR,Baseboard Total Heating Rate [W] !Hourly
396,1,Z2 RADIATOR,Baseboard Total Heating Rate [W] !Hourly
399,1,Z3 RADIATOR,Baseboard Total Heating Rate [W] !Hourly
402,1,Z4 RADIATOR,Baseboard Total Heating Rate [W] !Hourly
403,1,HEAT PUMP,Heat Pump Load Side Heat Transfer Rate [W] !Hourly
417,1,HEAT PUMP,Heat Pump Electricity Rate [W] !Hourly
492,1,SUPPLY PUMP,Pump Electricity Rate [W] !Hourly
493,1,SUPPLY PUMP,Pump Fluid Heat Gain Rate [W] !Hourly
End of Data Dictionary
1,WINTER DESIGN DAY IN (MID) UK,  53.35,  -2.28,   0.00,  69.00
2,1, 1,15, 0, 1, 0.00,60.00,WinterDesignDay
7,20.01604968992553
142,20.01604968992553
205,17.999367176950937
268,17.999367176950937
393,462.20884808785644
396,462.20884808785644
399,352.6174102121148
402,352.6174102121148
403,1625.4140337953108
417,464.4040096558031
492,4.019482200735824
493,4.019482200735824
2,1, 1,15, 0, 2, 0.00,60.00,WinterDesignDay
7,20.01604215672561
142,20.01604215672561
205,17.999197342318567
268,17.999197342318567
393,462.20896193005444
396,462.20896193005444
399,352.61885473247213
402,352.61885473247213
403,1625.4068620473927
417,464.4019605849693
492,4.019482212896621
493,4.019482212896621
2,1, 1,15, 0, 3, 0.00,60.00,WinterDesignDay
7,20.016033507922394
142,20.016033507922394
205,17.999749283563602
268,17.999749283563602
393,462.2090700554158
396,462.2090700554158
399,352.82367255415835
402,352.82367255415835
403,1625.7968009762815
417,464.51337170750907
492,4.019718984896595
493,4.019718984896595
2,1, 1,15, 0, 4, 0.00,60.00,WinterDesignDay
7,20.016035477401665
142,20.016035477401665
205,17.999767382585134
268,17.999767382585134
393,462.20910446920925
396,462.20910446920925
399,352.6114802347671
402,352.6114802347671
403,1625.4125295808435
417,464.40357988024095
492,4.019482203282861
493,4.019482203282861
2,1, 1,15, 0, 5, 0.00,60.00,WinterDesignDay
7,20.016049717350064
142,20.016049717350064
205,17.999399988003283
268,17.999399988003283
393,462.208921711378
396,462.208921711378
399,352.61672340466885
402,352.61672340466885
403,1625.4025106824404
417,464.4007173378401
492,4.019482220275027
493,4.019482220275027
2,1, 1,15, 0, 6, 0.00,60.00,WinterDesignDay
7,20.016055605462554
142,20.016055605462554
205,17.999590260818014
268,17.999590260818014
393,462.20881797078374
396,462.20881797078374
399,352.7208618563962
402,352.7208618563962
403,1625.6005743309918
417,464.4573069517119
492,4.019600601027761
493,4.019600601027761
2,1, 1,15, 0, 7, 0.00,60.00,WinterDesignDay
7,20.01605431250906
142,20.01605431250906
205,17.999414631068028
268,17.999414631068028
393,462.20880309717586
396,462.20880309717586
399,352.61692053357467
402,352.61692053357467
403,1625.412962577079
417,464.40370359345116
492,4.019482202552239
493,4.019482202552239
2,1, 1,15, 0, 8, 0.00,60.00,WinterDesignDay
7,20.01605027791755
142,20.01605027791755
205,17.99923346322827
268,17.99923346322827
393,462.20886376086924
396,462.20886376086924
399,352.6184863426955
402,352.6184863426955
403,1625.4059269934705
417,464.40169342670583
492,4.0194822144821485
493,4.0194822144821485
2,1, 1,15, 0, 9, 0.00,60.00,WinterDesignDay
7,20.016043437842004
142,20.016043437842004
205,17.999473914207467
268,17.999473914207467
393,462.2089432004665
396,462.2089432004665
399,352.72205101105806
402,352.72205101105806
403,1625.6032112771793
417,464.45806036490836
492,4.019600596556416
493,4.019600596556416
2,1, 1,15, 0,10, 0.00,60.00,WinterDesignDay
7,20.01603429895982
142,20.01603429895982
205,17.99984077827582
268,17.99984077827582
393,462.20904693344676
396,462.20904693344676
399,352.7162498986361
402,352.7162498986361
403,1625.6123091238628
417,464.4606597496751
492,4.019600581127211
493,4.019600581127211
2,1, 1,15, 0,11, 0.00,60.00,WinterDesignDay
7,20.016044808640302
142,20.016044808640302
205,17.99949189517729
268,17.99949189517729
393,462.2090165812011
396,462.2090165812011
399,352.61476423134513
402,352.61476423134513
403,1625.3985316564208
417,464.3995804732631
492,4.019482227022074
493,4.019482227022074
2,1, 1,15, 0,12, 0.00,60.00,WinterDesignDay
7,20.016056122280332
142,20.016056122280332
205,17.999651884551735
268,17.999651884551735
393,462.2088279652466
396,462.2088279652466
399,352.72018384707195
402,352.72018384707195
403,1625.5992296164595
417,464.45692274755976
492,4.01960060330793
493,4.01960060330793
2,1, 1,15, 0,13, 0.00,60.00,WinterDesignDay
7,20.01605909029521
142,20.01605909029521
205,17.99945704545688
268,17.99945704545688
393,462.2087519923306
396,462.2087519923306
399,352.61647938701753
402,352.61647938701753
403,1625.4119753162224
417,464.40342151892065
492,4.019482204226291
493,4.019482204226291
2,1, 1,15, 0,14, 0.00,60.00,WinterDesignDay
7,20.01605774799581
142,20.01605774799581
205,17.99926515570639
268,17.99926515570639
393,462.20877217774455
396,462.20877217774455
399,352.6181621628891
402,352.6181621628891
403,1625.4050934640468
417,464.4014552754419
492,4.0194822158955255
493,4.0194822158955255
2,1, 1,15, 0,15, 0.00,60.00,WinterDesignDay
7,20.016052320542347
142,20.016052320542347
205,17.999499025224758
268,17.999499025224758
393,462.2088292153985
396,462.2088292153985
399,352.72179959851627
402,352.72179959851627
403,1625.6024790574697
417,464.457851159277
492,4.019600597798005
493,4.019600597798005
2,1, 1,15, 0,16, 0.00,60.00,WinterDesignDay
7,20.01604370398525
142,20.01604370398525
205,17.999347412193828
268,17.999347412193828
393,462.2089235463277
396,462.2089235463277
399,352.6176109302775
402,352.6176109302775
403,1625.4145868883827
417,464.40416768239504
492,4.01948219979797
493,4.01948219979797
2,1, 1,15, 0,17, 0.00,60.00,WinterDesignDay
7,20.016035520127488
142,20.016035520127488
205,17.999181525637354
268,17.999181525637354
393,462.20904823003417
396,462.20904823003417
399,352.6190141459035
402,352.6190141459035
403,1625.4073543718962
417,464.4021012491132
492,4.01948221206181
493,4.01948221206181
2,1, 1,15, 0,18, 0.00,60.00,WinterDesignDay
7,20.016032915396018
142,20.016032915396018
205,18.000121347988756
268,18.000121347988756
393,462.20913264998603
396,462.20913264998603
399,352.817968076069
402,352.817968076069
403,1625.7953806460673
417,464.5129658988764
492,4.019718987301391
493,4.019718987301391
2,1, 1,15, 0,19, 0.00,60.00,WinterDesignDay
7,20.016046748084094
142,20.016046748084094
205,17.99957105068846
268,17.99957105068846
393,462.2089483309052
396,462.2089483309052
399,352.6153442085355
402,352.6153442085355
403,1625.4100779865216
417,464.40287942472054
492,4.019482207443503
493,4.019482207443503
2,1, 1,15, 0,20, 0.00,60.00,WinterDesignDay
7,20.016054600066848
142,20.016054600066848
205,17.999336499264473
268,17.999336499264473
393,462.20884142791215
396,462.20884142791215
399,352.6174109661627
402,352.6174109661627
403,1625.4037220046307
417,464.40106342989446
492,4.019482218221045
493,4.019482218221045
2,1, 1,15, 0,21, 0.00,60.00,WinterDesignDay
7,20.0160557258303
142,20.0160557258303
205,17.999550408689885
268,17.999550408689885
393,462.20880245295695
396,462.20880245295695
399,352.7212755877298
402,352.7212755877298
403,1625.6013742605628
417,464.457535503018
492,4.019600599671358
493,4.019600599671358
2,1, 1,15, 0,22, 0.00,60.00,WinterDesignDay
7,20.01605113427989
142,20.01605113427989
205,17.999386067608114
268,17.999386067608114
393,462.2088360024149
396,462.2088360024149
399,352.61721553254665
402,352.61721553254665
403,1625.4136196748022
417,464.4038913356577
492,4.019482201438029
493,4.019482201438029
2,1, 1,15, 0,23, 0.00,60.00,WinterDesignDay
7,20.01604512160732
142,20.01604512160732
205,17.99921175542501
268,17.99921175542501
393,462.2089267332134
396,462.2089267332134
399,352.6187077621596
402,352.6187077621596
403,1625.406496995108
417,464.40185628431664
492,4.019482213515623
493,4.019482213515623
2,1, 1,15, 0,24, 0.00,60.00,WinterDesignDay
7,20.01603727020219
142,20.01603727020219
205,17.999760774073152
268,17.999760774073152
393,462.2090222894037
396,462.2090222894037
399,352.8235575613258
402,352.8235575613258
403,1625.7964748864924
417,464.51327853899784
492,4.01971898544953
493,4.01971898544953
End of Data
 Number of Records Written=         288
