Program Version,EnergyPlus, Version 24.2.0-94a887817b, YMD=2025.04.07 13:38
1,5,Environment Title[],Latitude[deg],Longitude[deg],Time Zone[],Elevation[m]
2,8,Day of Simulation[],Month[],Day of Month[],DST Indicator[1=yes 0=no],Hour[],StartMinute[],EndMinute[],DayType
3,5,Cumulative Day of Simulation[],Month[],Day of Month[],DST Indicator[1=yes 0=no],DayType  ! When Daily Report Variables Requested
4,2,Cumulative Days of Simulation[],Month[]  ! When Monthly Report Variables Requested
5,1,Cumulative Days of Simulation[] ! When Run Period Report Variables Requested
6,1,Calendar Year of Simulation[] ! When Annual Report Variables Requested
7,1,Environment,Site Outdoor Air Drybulb Temperature [C] !Hourly
8,1,SURFACE NORTH,Surface Average Face Conduction Heat Transfer Rate [W] !Hourly
9,1,ZONE SURFACE EAST,Surface Average Face Conduction Heat Transfer Rate [W] !Hourly
10,1,ZONE SURFACE SOUTH,Surface Average Face Conduction Heat Transfer Rate [W] !Hourly
11,1,ZONE SURFACE WEST,Surface Average Face Conduction Heat Transfer Rate [W] !Hourly
12,1,ZONE SURFACE ROOF,Surface Average Face Conduction Heat Transfer Rate [W] !Hourly
13,1,ZONE SURFACE FLOOR,Surface Average Face Conduction Heat Transfer Rate [W] !Hourly
14,1,ZONE ONE,Zone Air Temperature [C] !Hourly
15,1,ZONE ONE,Zone Air System Sensible Heating Energy [J] !Hourly
149,1,ZONE ONE,Zone Predicted Sensible Load to Setpoint Heat Transfer Rate [W] !Hourly
248,1,ZONE ONE PURCHASED AIR,Zone Ideal Loads Zone Total Heating Rate [W] !Hourly
152,1,DistrictHeatingWater:Facility [J] !Hourly
End of Data Dictionary
1,SUMMER DESIGN DAY IN SALFORD ENERGY HOUSE 1.0 (01-01:31-12) JUN HVAC Sizing Pass 1,  53.35,  -2.28,   0.00,  69.00
2,1, 6,15, 1, 1, 0.00,60.00,SummerDesignDay
7,18.983
8,-11.235140247179235
9,-11.235140247179235
10,-11.235140247179235
11,-11.235140247179178
12,-42.02306994727587
13,-0.0018948191261861662
14,21.000000000002153
15,307263.21942406695
149,85.35089428331227
248,86.1361318528127
152,310090.07467012573
2,1, 6,15, 1, 2, 0.00,60.00,SummerDesignDay
7,18.622
8,-13.534230573979265
9,-13.534230573979265
10,-13.534230573979265
11,-13.534230573979219
12,-50.51387183053553
13,-0.001892751317156696
14,21.0
15,371981.19572021905
149,103.32810992228306
248,104.22065939637778
152,375194.37382696
2,1, 6,15, 1, 3, 0.00,60.00,SummerDesignDay
7,18.3655
8,-15.212582626683368
9,-15.212582626683368
10,-15.212582626683368
11,-15.212582626683384
12,-56.6970367370427
13,-0.001892195332270338
14,21.0
15,418190.5159487064
149,116.164032207974
248,117.0951768234221
152,421542.6365643195
2,1, 6,15, 1, 4, 0.00,60.00,SummerDesignDay
7,18.1375
8,-16.73327894396568
9,-16.733278936622586
10,-16.73327897545842
11,-16.733278975458415
12,-62.29813056595599
13,-0.0018919456001892292
14,21.0
15,460185.56955967244
149,127.82932487768679
248,128.77176242910872
152,463578.3447447914
2,1, 6,15, 1, 5, 0.00,60.00,SummerDesignDay
7,17.957
8,-17.9255667036022
9,-17.925529543064215
10,-17.925615314894475
11,-17.9256153148945
12,-66.68767954913807
13,-0.00189181465775701
14,21.0
15,493646.73277254804
149,137.1240924368189
248,138.04682018807947
152,496968.5526770861
2,1, 6,15, 1, 6, 0.00,60.00,SummerDesignDay
7,17.994999999999997
8,-17.492712689659975
9,-17.492571356505202
10,-17.492788221948203
11,-17.492788221948203
12,-65.15856141265232
13,-0.001891728250492381
14,21.0
15,491156.8740200251
149,136.43246500556253
248,137.2665797381403
152,494159.68705730507
2,1, 6,15, 1, 7, 0.00,60.00,SummerDesignDay
7,18.3845
8,-14.798229914773826
9,-14.797986468588928
10,-14.798271479219764
11,-14.798271479219764
12,-55.22185026927467
13,-0.0018916273485054533
14,21.0
15,417269.95314057404
149,115.90832031682612
248,116.55474937197866
152,419597.09773912316
2,1, 6,15, 1, 8, 0.00,60.00,SummerDesignDay
7,19.3915
8,-8.117572660309392
9,-8.117260279382691
10,-8.117552247774611
11,-8.117573606277961
12,-30.454234648935792
13,-0.0018915357396029327
14,21.0
15,233663.7698853328
149,64.90660274592578
248,65.2437130433198
152,234877.36695595126
2,1, 6,15, 1, 9, 0.00,60.00,SummerDesignDay
7,20.7785
8,-0.679139149815275
9,-0.678811585678458
10,-0.6790330364060744
11,-0.6791395567676577
12,-2.153732851453362
13,-0.0018914802855592948
14,21.004054282783407
15,31173.603309010956
149,6.947866288347356
248,8.70276291990206
152,31329.946511647413
2,1, 6,15, 1,10, 0.00,60.00,SummerDesignDay
7,22.127499999999998
8,5.061178374110316
9,5.061431319414921
10,5.061328559296264
11,5.061178371895747
12,12.68791976284808
13,-0.0019514233077632848
14,21.20721498031314
15,0.0
149,-97.91804228997533
248,0.0
152,0.0
2,1, 6,15, 1,11, 0.00,60.00,SummerDesignDay
7,23.324499999999997
8,9.115705974198882
9,9.115849586365378
10,9.115884988926872
11,9.115705974175409
12,23.33182609439455
13,-0.0022696999082946374
14,21.795151172953467
15,0.0
149,-390.5256842090593
248,0.0
152,0.0
2,1, 6,15, 1,12, 0.00,60.00,SummerDesignDay
7,24.227
8,10.047614405703456
9,10.04766400090406
10,10.047814693286764
11,10.04761440570324
12,25.855818193674985
13,-0.0027387360760871772
14,22.558318013995216
15,0.0
149,-771.323920860985
248,0.0
152,0.0
2,1, 6,15, 1,13, 0.00,60.00,SummerDesignDay
7,24.892000000000003
8,9.406429860479264
9,9.406429546490443
10,9.406632332956015
11,9.406477757786266
12,24.157706836187117
13,-0.0032208452527876163
14,23.313061105675196
15,0.0
149,-1138.697552399899
248,0.0
152,0.0
2,1, 6,15, 1,14, 0.00,60.00,SummerDesignDay
7,25.3575
8,7.939025063754737
9,7.939025065966733
10,7.939209736275557
11,7.939170294607423
12,20.274871457066276
13,-0.0036624943504632223
14,23.9893389546047
15,0.0
149,-1454.989442655226
248,0.0
152,0.0
2,1, 6,15, 1,15, 0.00,60.00,SummerDesignDay
7,25.5
8,5.365592751404862
9,5.365592751426364
10,5.3657427910719235
11,5.365833898061843
12,13.530762622631302
13,-0.004022009845619118
14,24.515226343035984
15,0.0
149,-1672.78113285422
248,0.0
152,0.0
2,1, 6,15, 1,16, 0.00,60.00,SummerDesignDay
7,25.215
8,1.854564252648573
9,1.8545642526486086
10,1.8546595894713125
11,1.8549032731579134
12,4.527395159897155
13,-0.004242610149202941
14,24.8024028104142
15,0.0
149,-1722.6316456581308
248,0.0
152,0.0
2,1, 6,15, 1,17, 0.00,60.00,SummerDesignDay
7,24.664
8,-0.7800658006104716
9,-0.7800677538092771
10,-0.7800416832107389
11,-0.7796785056946557
12,-3.0835236625264857
13,-0.0043067138890858815
14,24.833398289334482
15,0.0
149,-1662.6354399622644
248,0.0
152,0.0
2,1, 6,15, 1,18, 0.00,60.00,SummerDesignDay
7,23.961000000000002
8,-3.5206684185417174
9,-3.520717183198374
10,-3.5207171707785276
11,-3.5203863703524236
12,-13.382593069851222
13,-0.004238617597396037
14,24.63703193642723
15,0.0
149,-1809.1405842974548
248,0.0
152,0.0
2,1, 6,15, 1,19, 0.00,60.00,SummerDesignDay
7,22.9635
8,-7.0570557518492345
9,-7.057138727104689
10,-7.05713872695442
11,-7.05690409458628
12,-26.569547146824053
13,-0.003997374768979138
14,24.189322330020058
15,0.0
149,-1686.1546326214643
248,0.0
152,0.0
2,1, 6,15, 1,20, 0.00,60.00,SummerDesignDay
7,22.0135
8,-8.960210651316448
9,-8.960260153531237
10,-8.960260153529406
11,-8.960172984734289
12,-33.61609054489912
13,-0.0036012158537450543
14,23.525230253827942
15,0.0
149,-1377.398298655019
248,0.0
152,0.0
2,1, 6,15, 1,21, 0.00,60.00,SummerDesignDay
7,21.2725
8,-9.108980985411767
9,-9.108980827559385
10,-9.108980827559378
11,-9.108981070169456
12,-34.16109463366682
13,-0.0031515303702735137
14,22.80892050509764
15,0.0
149,-991.9456387314547
248,0.0
152,0.0
2,1, 6,15, 1,22, 0.00,60.00,SummerDesignDay
7,20.5885
8,-8.951233317088203
9,-8.951233318662583
10,-8.951233318662535
11,-8.951233316637612
12,-33.57808285229464
13,-0.002703929942419595
14,22.102219282474998
15,0.0
149,-604.2741653166543
248,0.0
152,0.0
2,1, 6,15, 1,23, 0.00,60.00,SummerDesignDay
7,19.9995
8,-8.3106246890285
9,-8.31062468904734
10,-8.310624689047376
11,-8.310624689022916
12,-31.202718875794822
13,-0.002268323073602762
14,21.421993244377752
15,0.0
149,-230.85231037442915
248,0.0
152,0.0
2,1, 6,15, 1,24, 0.00,60.00,SummerDesignDay
7,19.4675
8,-8.407368292390707
9,-8.407368292390913
10,-8.407368292390867
11,-8.407368292390682
12,-31.56013987056901
13,-0.0019317552946841203
14,21.00564945052141
15,180830.44749912305
149,47.15634766079842
248,50.464882976546036
152,181673.57871556573
1,WINTER DESIGN DAY IN (MID) UK HVAC Sizing Pass 1,  53.35,  -2.28,   0.00,  69.00
2,1, 1,15, 0, 1, 0.00,60.00,WinterDesignDay
7,-3.0
8,-183.2649359050397
9,-183.2649359050397
10,-183.2649359050397
11,-183.2649359050397
12,-667.0735827747885
13,-0.001891419032366219
14,21.0
15,5040486.783774226
149,1400.1352177150625
248,1400.1352177150625
152,5040486.783774225
2,1, 1,15, 0, 2, 0.00,60.00,WinterDesignDay
7,-3.0
8,-183.26493590503966
9,-183.26493590503966
10,-183.26493590503966
11,-183.26493590503966
12,-667.0735827747885
13,-0.0018914190316240696
14,21.0
15,5040486.783801347
149,1400.1352177225963
248,1400.1352177225965
152,5040486.783801347
2,1, 1,15, 0, 3, 0.00,60.00,WinterDesignDay
7,-3.0
8,-183.26493590503966
9,-183.26493590503966
10,-183.26493590503966
11,-183.26493590503966
12,-667.0735827747885
13,-0.0018914190309384426
14,21.0
15,5040486.783826396
149,1400.1352177295546
248,1400.1352177295544
152,5040486.783826396
2,1, 1,15, 0, 4, 0.00,60.00,WinterDesignDay
7,-3.0
8,-183.2649359050397
9,-183.2649359050397
10,-183.2649359050397
11,-183.2649359050397
12,-667.0735827747886
13,-0.0018914190303050353
14,21.0
15,5040486.783849537
149,1400.1352177359827
248,1400.1352177359825
152,5040486.783849537
2,1, 1,15, 0, 5, 0.00,60.00,WinterDesignDay
7,-3.0
8,-183.2649359050397
9,-183.2649359050397
10,-183.2649359050397
11,-183.2649359050397
12,-667.0735827747887
13,-0.0018914190297198692
14,21.000000000000004
15,5040486.783870922
149,1400.1352177419226
248,1400.1352177419228
152,5040486.783870922
2,1, 1,15, 0, 6, 0.00,60.00,WinterDesignDay
7,-3.0
8,-183.2649359050397
9,-183.2649359050397
10,-183.2649359050397
11,-183.2649359050397
12,-667.0735827747885
13,-0.0018914190291792678
14,21.0
15,5040486.783890674
149,1400.1352177474091
248,1400.1352177474091
152,5040486.783890673
2,1, 1,15, 0, 7, 0.00,60.00,WinterDesignDay
7,-3.0
8,-183.2649359050397
9,-183.2649359050397
10,-183.2649359050397
11,-183.2649359050397
12,-667.0735827747885
13,-0.0018914190286798427
14,21.0
15,5040486.783908926
149,1400.135217752479
248,1400.1352177524795
152,5040486.783908926
2,1, 1,15, 0, 8, 0.00,60.00,WinterDesignDay
7,-3.0
8,-183.26493590503966
9,-183.26493590503966
10,-183.26493590503966
11,-183.26493590503966
12,-667.0735827747885
13,-0.0018914190282184552
14,21.0
15,5040486.783925787
149,1400.135217757163
248,1400.135217757163
152,5040486.783925787
2,1, 1,15, 0, 9, 0.00,60.00,WinterDesignDay
7,-3.0
8,-183.2649359050397
9,-183.2649359050397
10,-183.2649359050397
11,-183.2649359050397
12,-667.0735827747885
13,-0.0018914190277922072
14,21.0
15,5040486.78394136
149,1400.135217761489
248,1400.135217761489
152,5040486.783941361
2,1, 1,15, 0,10, 0.00,60.00,WinterDesignDay
7,-3.0
8,-183.26493590503966
9,-183.26493590503966
10,-183.26493590503966
11,-183.26493590503966
12,-667.0735827747885
13,-0.0018914190273984228
14,20.999999999999996
15,5040486.783955747
149,1400.1352177654855
248,1400.1352177654855
152,5040486.783955748
2,1, 1,15, 0,11, 0.00,60.00,WinterDesignDay
7,-3.0
8,-183.2649359050397
9,-183.2649359050397
10,-183.2649359050397
11,-183.2649359050397
12,-667.0735827747885
13,-0.001891419027034631
14,21.0
15,5040486.783969045
149,1400.1352177691788
248,1400.1352177691788
152,5040486.783969044
2,1, 1,15, 0,12, 0.00,60.00,WinterDesignDay
7,-3.0
8,-183.2649359050397
9,-183.2649359050397
10,-183.2649359050397
11,-183.2649359050397
12,-667.0735827747885
13,-0.0018914190266985434
14,21.0
15,5040486.783981324
149,1400.1352177725903
248,1400.1352177725903
152,5040486.783981325
2,1, 1,15, 0,13, 0.00,60.00,WinterDesignDay
7,-3.0
8,-183.26493590503966
9,-183.26493590503966
10,-183.26493590503966
11,-183.26493590503966
12,-667.0735827747885
13,-0.0018914190263880557
14,21.0
15,5040486.783992665
149,1400.1352177757403
248,1400.1352177757403
152,5040486.783992665
2,1, 1,15, 0,14, 0.00,60.00,WinterDesignDay
7,-3.0
8,-183.2649359050397
9,-183.2649359050397
10,-183.2649359050397
11,-183.2649359050397
12,-667.0735827747885
13,-0.0018914190261012178
14,21.0
15,5040486.78400315
149,1400.1352177786525
248,1400.1352177786525
152,5040486.78400315
2,1, 1,15, 0,15, 0.00,60.00,WinterDesignDay
7,-3.0
8,-183.26493590503966
9,-183.26493590503966
10,-183.26493590503966
11,-183.26493590503966
12,-667.0735827747886
13,-0.0018914190258362232
14,21.0
15,5040486.784012834
149,1400.1352177813426
248,1400.1352177813426
152,5040486.784012834
2,1, 1,15, 0,16, 0.00,60.00,WinterDesignDay
7,-3.0
8,-183.2649359050397
9,-183.2649359050397
10,-183.2649359050397
11,-183.2649359050397
12,-667.0735827747885
13,-0.00189141902559141
14,21.0
15,5040486.784021778
149,1400.135217783827
248,1400.135217783827
152,5040486.784021776
2,1, 1,15, 0,17, 0.00,60.00,WinterDesignDay
7,-3.0
8,-183.26493590503966
9,-183.26493590503966
10,-183.26493590503966
11,-183.26493590503966
12,-667.0735827747885
13,-0.0018914190253652436
14,21.0
15,5040486.784030043
149,1400.1352177861224
248,1400.1352177861224
152,5040486.784030041
2,1, 1,15, 0,18, 0.00,60.00,WinterDesignDay
7,-3.0
8,-183.2649359050397
9,-183.2649359050397
10,-183.2649359050397
11,-183.2649359050397
12,-667.0735827747885
13,-0.0018914190251563031
14,21.0
15,5040486.784037676
149,1400.1352177882436
248,1400.1352177882434
152,5040486.784037677
2,1, 1,15, 0,19, 0.00,60.00,WinterDesignDay
7,-3.0
8,-183.26493590503966
9,-183.26493590503966
10,-183.26493590503966
11,-183.26493590503966
12,-667.0735827747885
13,-0.0018914190249632765
14,21.0
15,5040486.784044729
149,1400.1352177902024
248,1400.1352177902027
152,5040486.78404473
2,1, 1,15, 0,20, 0.00,60.00,WinterDesignDay
7,-3.0
8,-183.2649359050397
9,-183.2649359050397
10,-183.2649359050397
11,-183.2649359050397
12,-667.0735827747885
13,-0.0018914190247849517
14,21.0
15,5040486.784051248
149,1400.135217792013
248,1400.1352177920135
152,5040486.784051248
2,1, 1,15, 0,21, 0.00,60.00,WinterDesignDay
7,-3.0
8,-183.26493590503966
9,-183.26493590503966
10,-183.26493590503966
11,-183.26493590503966
12,-667.0735827747885
13,-0.0018914190246202077
14,21.0
15,5040486.784057266
149,1400.135217793685
248,1400.1352177936851
152,5040486.784057266
2,1, 1,15, 0,22, 0.00,60.00,WinterDesignDay
7,-3.0
8,-183.2649359050397
9,-183.2649359050397
10,-183.2649359050397
11,-183.2649359050397
12,-667.0735827747885
13,-0.0018914190244680121
14,21.0
15,5040486.78406283
149,1400.1352177952303
248,1400.1352177952303
152,5040486.78406283
2,1, 1,15, 0,23, 0.00,60.00,WinterDesignDay
7,-3.0
8,-183.26493590503972
9,-183.26493590503972
10,-183.26493590503972
11,-183.26493590503972
12,-667.0735827747887
13,-0.0018914190243274071
14,21.0
15,5040486.784067964
149,1400.1352177966564
248,1400.1352177966567
152,5040486.784067964
2,1, 1,15, 0,24, 0.00,60.00,WinterDesignDay
7,-3.0
8,-183.2649359050397
9,-183.2649359050397
10,-183.2649359050397
11,-183.2649359050397
12,-667.0735827747885
13,-0.0018914190241975089
14,21.0
15,5040486.784072713
149,1400.1352177979757
248,1400.1352177979759
152,5040486.784072713
1,SUMMER DESIGN DAY IN SALFORD ENERGY HOUSE 1.0 (01-01:31-12) JUN,  53.35,  -2.28,   0.00,  69.00
2,1, 6,15, 1, 1, 0.00,60.00,SummerDesignDay
7,18.983
8,-11.235140247179235
9,-11.235140247179235
10,-11.235140247179235
11,-11.235140247179178
12,-42.02306994727587
13,-0.0018948191261861662
14,21.000000000002153
15,307263.21942406695
149,85.35089428331227
248,86.1361318528127
152,310090.07467012573
2,1, 6,15, 1, 2, 0.00,60.00,SummerDesignDay
7,18.622
8,-13.534230573979265
9,-13.534230573979265
10,-13.534230573979265
11,-13.534230573979219
12,-50.51387183053553
13,-0.001892751317156696
14,21.0
15,371981.19572021905
149,103.32810992228306
248,104.22065939637778
152,375194.37382696
2,1, 6,15, 1, 3, 0.00,60.00,SummerDesignDay
7,18.3655
8,-15.212582626683368
9,-15.212582626683368
10,-15.212582626683368
11,-15.212582626683384
12,-56.6970367370427
13,-0.001892195332270338
14,21.0
15,418190.5159487064
149,116.164032207974
248,117.0951768234221
152,421542.6365643195
2,1, 6,15, 1, 4, 0.00,60.00,SummerDesignDay
7,18.1375
8,-16.73327894396568
9,-16.733278936622586
10,-16.73327897545842
11,-16.733278975458415
12,-62.29813056595599
13,-0.0018919456001892292
14,21.0
15,460185.56955967244
149,127.82932487768679
248,128.77176242910872
152,463578.3447447914
2,1, 6,15, 1, 5, 0.00,60.00,SummerDesignDay
7,17.957
8,-17.9255667036022
9,-17.925529543064215
10,-17.925615314894475
11,-17.9256153148945
12,-66.68767954913807
13,-0.00189181465775701
14,21.0
15,493646.73277254804
149,137.1240924368189
248,138.04682018807947
152,496968.5526770861
2,1, 6,15, 1, 6, 0.00,60.00,SummerDesignDay
7,17.994999999999997
8,-17.492712689659975
9,-17.492571356505202
10,-17.492788221948203
11,-17.492788221948203
12,-65.15856141265232
13,-0.001891728250492381
14,21.0
15,491156.8740200251
149,136.43246500556253
248,137.2665797381403
152,494159.68705730507
2,1, 6,15, 1, 7, 0.00,60.00,SummerDesignDay
7,18.3845
8,-14.798229914773826
9,-14.797986468588928
10,-14.798271479219764
11,-14.798271479219764
12,-55.22185026927467
13,-0.0018916273485054533
14,21.0
15,417269.95314057404
149,115.90832031682612
248,116.55474937197866
152,419597.09773912316
2,1, 6,15, 1, 8, 0.00,60.00,SummerDesignDay
7,19.3915
8,-8.117572660309392
9,-8.117260279382691
10,-8.117552247774611
11,-8.117573606277961
12,-30.454234648935792
13,-0.0018915357396029327
14,21.0
15,233663.7698853328
149,64.90660274592578
248,65.2437130433198
152,234877.36695595126
2,1, 6,15, 1, 9, 0.00,60.00,SummerDesignDay
7,20.7785
8,-0.679139149815275
9,-0.678811585678458
10,-0.6790330364060744
11,-0.6791395567676577
12,-2.153732851453362
13,-0.0018914802855592948
14,21.004054282783407
15,31173.603309010956
149,6.947866288347356
248,8.70276291990206
152,31329.946511647413
2,1, 6,15, 1,10, 0.00,60.00,SummerDesignDay
7,22.127499999999998
8,5.061178374110316
9,5.061431319414921
10,5.061328559296264
11,5.061178371895747
12,12.68791976284808
13,-0.0019514233077632848
14,21.20721498031314
15,0.0
149,-97.91804228997533
248,0.0
152,0.0
2,1, 6,15, 1,11, 0.00,60.00,SummerDesignDay
7,23.324499999999997
8,9.115705974198882
9,9.115849586365378
10,9.115884988926872
11,9.115705974175409
12,23.33182609439455
13,-0.0022696999082946374
14,21.795151172953467
15,0.0
149,-390.5256842090593
248,0.0
152,0.0
2,1, 6,15, 1,12, 0.00,60.00,SummerDesignDay
7,24.227
8,10.047614405703456
9,10.04766400090406
10,10.047814693286764
11,10.04761440570324
12,25.855818193674985
13,-0.0027387360760871772
14,22.558318013995216
15,0.0
149,-771.323920860985
248,0.0
152,0.0
2,1, 6,15, 1,13, 0.00,60.00,SummerDesignDay
7,24.892000000000003
8,9.406429860479264
9,9.406429546490443
10,9.406632332956015
11,9.406477757786266
12,24.157706836187117
13,-0.0032208452527876163
14,23.313061105675196
15,0.0
149,-1138.697552399899
248,0.0
152,0.0
2,1, 6,15, 1,14, 0.00,60.00,SummerDesignDay
7,25.3575
8,7.939025063754737
9,7.939025065966733
10,7.939209736275557
11,7.939170294607423
12,20.274871457066276
13,-0.0036624943504632223
14,23.9893389546047
15,0.0
149,-1454.989442655226
248,0.0
152,0.0
2,1, 6,15, 1,15, 0.00,60.00,SummerDesignDay
7,25.5
8,5.365592751404862
9,5.365592751426364
10,5.3657427910719235
11,5.365833898061843
12,13.530762622631302
13,-0.004022009845619118
14,24.515226343035984
15,0.0
149,-1672.78113285422
248,0.0
152,0.0
2,1, 6,15, 1,16, 0.00,60.00,SummerDesignDay
7,25.215
8,1.854564252648573
9,1.8545642526486086
10,1.8546595894713125
11,1.8549032731579134
12,4.527395159897155
13,-0.004242610149202941
14,24.8024028104142
15,0.0
149,-1722.6316456581308
248,0.0
152,0.0
2,1, 6,15, 1,17, 0.00,60.00,SummerDesignDay
7,24.664
8,-0.7800658006104716
9,-0.7800677538092771
10,-0.7800416832107389
11,-0.7796785056946557
12,-3.0835236625264857
13,-0.0043067138890858815
14,24.833398289334482
15,0.0
149,-1662.6354399622644
248,0.0
152,0.0
2,1, 6,15, 1,18, 0.00,60.00,SummerDesignDay
7,23.961000000000002
8,-3.5206684185417174
9,-3.520717183198374
10,-3.5207171707785276
11,-3.5203863703524236
12,-13.382593069851222
13,-0.004238617597396037
14,24.63703193642723
15,0.0
149,-1809.1405842974548
248,0.0
152,0.0
2,1, 6,15, 1,19, 0.00,60.00,SummerDesignDay
7,22.9635
8,-7.0570557518492345
9,-7.057138727104689
10,-7.05713872695442
11,-7.05690409458628
12,-26.569547146824053
13,-0.003997374768979138
14,24.189322330020058
15,0.0
149,-1686.1546326214643
248,0.0
152,0.0
2,1, 6,15, 1,20, 0.00,60.00,SummerDesignDay
7,22.0135
8,-8.960210651316448
9,-8.960260153531237
10,-8.960260153529406
11,-8.960172984734289
12,-33.61609054489912
13,-0.0036012158537450543
14,23.525230253827942
15,0.0
149,-1377.398298655019
248,0.0
152,0.0
2,1, 6,15, 1,21, 0.00,60.00,SummerDesignDay
7,21.2725
8,-9.108980985411767
9,-9.108980827559385
10,-9.108980827559378
11,-9.108981070169456
12,-34.16109463366682
13,-0.0031515303702735137
14,22.80892050509764
15,0.0
149,-991.9456387314547
248,0.0
152,0.0
2,1, 6,15, 1,22, 0.00,60.00,SummerDesignDay
7,20.5885
8,-8.951233317088203
9,-8.951233318662583
10,-8.951233318662535
11,-8.951233316637612
12,-33.57808285229464
13,-0.002703929942419595
14,22.102219282474998
15,0.0
149,-604.2741653166543
248,0.0
152,0.0
2,1, 6,15, 1,23, 0.00,60.00,SummerDesignDay
7,19.9995
8,-8.3106246890285
9,-8.31062468904734
10,-8.310624689047376
11,-8.310624689022916
12,-31.202718875794822
13,-0.002268323073602762
14,21.421993244377752
15,0.0
149,-230.85231037442915
248,0.0
152,0.0
2,1, 6,15, 1,24, 0.00,60.00,SummerDesignDay
7,19.4675
8,-8.407368292390707
9,-8.407368292390913
10,-8.407368292390867
11,-8.407368292390682
12,-31.56013987056901
13,-0.0019317552946841203
14,21.00564945052141
15,180830.44749912305
149,47.15634766079842
248,50.464882976546036
152,181673.57871556573
1,WINTER DESIGN DAY IN (MID) UK,  53.35,  -2.28,   0.00,  69.00
2,1, 1,15, 0, 1, 0.00,60.00,WinterDesignDay
7,-3.0
8,-183.2649359050397
9,-183.2649359050397
10,-183.2649359050397
11,-183.2649359050397
12,-667.0735827747885
13,-0.001891419032366219
14,21.0
15,5040486.783774226
149,1400.1352177150625
248,1400.1352177150625
152,5040486.783774225
2,1, 1,15, 0, 2, 0.00,60.00,WinterDesignDay
7,-3.0
8,-183.26493590503966
9,-183.26493590503966
10,-183.26493590503966
11,-183.26493590503966
12,-667.0735827747885
13,-0.0018914190316240696
14,21.0
15,5040486.783801347
149,1400.1352177225963
248,1400.1352177225965
152,5040486.783801347
2,1, 1,15, 0, 3, 0.00,60.00,WinterDesignDay
7,-3.0
8,-183.26493590503966
9,-183.26493590503966
10,-183.26493590503966
11,-183.26493590503966
12,-667.0735827747885
13,-0.0018914190309384426
14,21.0
15,5040486.783826396
149,1400.1352177295546
248,1400.1352177295544
152,5040486.783826396
2,1, 1,15, 0, 4, 0.00,60.00,WinterDesignDay
7,-3.0
8,-183.2649359050397
9,-183.2649359050397
10,-183.2649359050397
11,-183.2649359050397
12,-667.0735827747886
13,-0.0018914190303050353
14,21.0
15,5040486.783849537
149,1400.1352177359827
248,1400.1352177359825
152,5040486.783849537
2,1, 1,15, 0, 5, 0.00,60.00,WinterDesignDay
7,-3.0
8,-183.2649359050397
9,-183.2649359050397
10,-183.2649359050397
11,-183.2649359050397
12,-667.0735827747887
13,-0.0018914190297198692
14,21.000000000000004
15,5040486.783870922
149,1400.1352177419226
248,1400.1352177419228
152,5040486.783870922
2,1, 1,15, 0, 6, 0.00,60.00,WinterDesignDay
7,-3.0
8,-183.2649359050397
9,-183.2649359050397
10,-183.2649359050397
11,-183.2649359050397
12,-667.0735827747885
13,-0.0018914190291792678
14,21.0
15,5040486.783890674
149,1400.1352177474091
248,1400.1352177474091
152,5040486.783890673
2,1, 1,15, 0, 7, 0.00,60.00,WinterDesignDay
7,-3.0
8,-183.2649359050397
9,-183.2649359050397
10,-183.2649359050397
11,-183.2649359050397
12,-667.0735827747885
13,-0.0018914190286798427
14,21.0
15,5040486.783908926
149,1400.135217752479
248,1400.1352177524795
152,5040486.783908926
2,1, 1,15, 0, 8, 0.00,60.00,WinterDesignDay
7,-3.0
8,-183.26493590503966
9,-183.26493590503966
10,-183.26493590503966
11,-183.26493590503966
12,-667.0735827747885
13,-0.0018914190282184552
14,21.0
15,5040486.783925787
149,1400.135217757163
248,1400.135217757163
152,5040486.783925787
2,1, 1,15, 0, 9, 0.00,60.00,WinterDesignDay
7,-3.0
8,-183.2649359050397
9,-183.2649359050397
10,-183.2649359050397
11,-183.2649359050397
12,-667.0735827747885
13,-0.0018914190277922072
14,21.0
15,5040486.78394136
149,1400.135217761489
248,1400.135217761489
152,5040486.783941361
2,1, 1,15, 0,10, 0.00,60.00,WinterDesignDay
7,-3.0
8,-183.26493590503966
9,-183.26493590503966
10,-183.26493590503966
11,-183.26493590503966
12,-667.0735827747885
13,-0.0018914190273984228
14,20.999999999999996
15,5040486.783955747
149,1400.1352177654855
248,1400.1352177654855
152,5040486.783955748
2,1, 1,15, 0,11, 0.00,60.00,WinterDesignDay
7,-3.0
8,-183.2649359050397
9,-183.2649359050397
10,-183.2649359050397
11,-183.2649359050397
12,-667.0735827747885
13,-0.001891419027034631
14,21.0
15,5040486.783969045
149,1400.1352177691788
248,1400.1352177691788
152,5040486.783969044
2,1, 1,15, 0,12, 0.00,60.00,WinterDesignDay
7,-3.0
8,-183.2649359050397
9,-183.2649359050397
10,-183.2649359050397
11,-183.2649359050397
12,-667.0735827747885
13,-0.0018914190266985434
14,21.0
15,5040486.783981324
149,1400.1352177725903
248,1400.1352177725903
152,5040486.783981325
2,1, 1,15, 0,13, 0.00,60.00,WinterDesignDay
7,-3.0
8,-183.26493590503966
9,-183.26493590503966
10,-183.26493590503966
11,-183.26493590503966
12,-667.0735827747885
13,-0.0018914190263880557
14,21.0
15,5040486.783992665
149,1400.1352177757403
248,1400.1352177757403
152,5040486.783992665
2,1, 1,15, 0,14, 0.00,60.00,WinterDesignDay
7,-3.0
8,-183.2649359050397
9,-183.2649359050397
10,-183.2649359050397
11,-183.2649359050397
12,-667.0735827747885
13,-0.0018914190261012178
14,21.0
15,5040486.78400315
149,1400.1352177786525
248,1400.1352177786525
152,5040486.78400315
2,1, 1,15, 0,15, 0.00,60.00,WinterDesignDay
7,-3.0
8,-183.26493590503966
9,-183.26493590503966
10,-183.26493590503966
11,-183.26493590503966
12,-667.0735827747886
13,-0.0018914190258362232
14,21.0
15,5040486.784012834
149,1400.1352177813426
248,1400.1352177813426
152,5040486.784012834
2,1, 1,15, 0,16, 0.00,60.00,WinterDesignDay
7,-3.0
8,-183.2649359050397
9,-183.2649359050397
10,-183.2649359050397
11,-183.2649359050397
12,-667.0735827747885
13,-0.00189141902559141
14,21.0
15,5040486.784021778
149,1400.135217783827
248,1400.135217783827
152,5040486.784021776
2,1, 1,15, 0,17, 0.00,60.00,WinterDesignDay
7,-3.0
8,-183.26493590503966
9,-183.26493590503966
10,-183.26493590503966
11,-183.26493590503966
12,-667.0735827747885
13,-0.0018914190253652436
14,21.0
15,5040486.784030043
149,1400.1352177861224
248,1400.1352177861224
152,5040486.784030041
2,1, 1,15, 0,18, 0.00,60.00,WinterDesignDay
7,-3.0
8,-183.2649359050397
9,-183.2649359050397
10,-183.2649359050397
11,-183.2649359050397
12,-667.0735827747885
13,-0.0018914190251563031
14,21.0
15,5040486.784037676
149,1400.1352177882436
248,1400.1352177882434
152,5040486.784037677
2,1, 1,15, 0,19, 0.00,60.00,WinterDesignDay
7,-3.0
8,-183.26493590503966
9,-183.26493590503966
10,-183.26493590503966
11,-183.26493590503966
12,-667.0735827747885
13,-0.0018914190249632765
14,21.0
15,5040486.784044729
149,1400.1352177902024
248,1400.1352177902027
152,5040486.78404473
2,1, 1,15, 0,20, 0.00,60.00,WinterDesignDay
7,-3.0
8,-183.2649359050397
9,-183.2649359050397
10,-183.2649359050397
11,-183.2649359050397
12,-667.0735827747885
13,-0.0018914190247849517
14,21.0
15,5040486.784051248
149,1400.135217792013
248,1400.1352177920135
152,5040486.784051248
2,1, 1,15, 0,21, 0.00,60.00,WinterDesignDay
7,-3.0
8,-183.26493590503966
9,-183.26493590503966
10,-183.26493590503966
11,-183.26493590503966
12,-667.0735827747885
13,-0.0018914190246202077
14,21.0
15,5040486.784057266
149,1400.135217793685
248,1400.1352177936851
152,5040486.784057266
2,1, 1,15, 0,22, 0.00,60.00,WinterDesignDay
7,-3.0
8,-183.2649359050397
9,-183.2649359050397
10,-183.2649359050397
11,-183.2649359050397
12,-667.0735827747885
13,-0.0018914190244680121
14,21.0
15,5040486.78406283
149,1400.1352177952303
248,1400.1352177952303
152,5040486.78406283
2,1, 1,15, 0,23, 0.00,60.00,WinterDesignDay
7,-3.0
8,-183.26493590503972
9,-183.26493590503972
10,-183.26493590503972
11,-183.26493590503972
12,-667.0735827747887
13,-0.0018914190243274071
14,21.0
15,5040486.784067964
149,1400.1352177966564
248,1400.1352177966567
152,5040486.784067964
2,1, 1,15, 0,24, 0.00,60.00,WinterDesignDay
7,-3.0
8,-183.2649359050397
9,-183.2649359050397
10,-183.2649359050397
11,-183.2649359050397
12,-667.0735827747885
13,-0.0018914190241975089
14,21.0
15,5040486.784072713
149,1400.1352177979757
248,1400.1352177979759
152,5040486.784072713
End of Data
 Number of Records Written=        1152
