Program Version,EnergyPlus, Version 24.2.0-94a887817b, YMD=2025.12.10 13:32
1,5,Environment Title[],Latitude[deg],Longitude[deg],Time Zone[],Elevation[m]
2,8,Day of Simulation[],Month[],Day of Month[],DST Indicator[1=yes 0=no],Hour[],StartMinute[],EndMinute[],DayType
3,5,Cumulative Day of Simulation[],Month[],Day of Month[],DST Indicator[1=yes 0=no],DayType  ! When Daily Report Variables Requested
4,2,Cumulative Days of Simulation[],Month[]  ! When Monthly Report Variables Requested
5,1,Cumulative Days of Simulation[] ! When Run Period Report Variables Requested
6,1,Calendar Year of Simulation[] ! When Annual Report Variables Requested
7,1,Environment,Site Outdoor Air Drybulb Temperature [C] !Hourly
8,1,Z1,Zone Air Temperature [C] !Hourly
143,1,Z2,Zone Air Temperature [C] !Hourly
206,1,Z3,Zone Air Temperature [C] !Hourly
269,1,Z4,Zone Air Temperature [C] !Hourly
332,1,HOT WATER LOOP,Plant Supply Side Outlet Temperature [C] !Hourly
395,1,Z1 RADIATOR,Baseboard Total Heating Rate [W] !Hourly
396,1,Z1 RADIATOR,Baseboard Hot Water Mass Flow Rate [kg/s] !Hourly
399,1,Z2 RADIATOR,Baseboard Total Heating Rate [W] !Hourly
400,1,Z2 RADIATOR,Baseboard Hot Water Mass Flow Rate [kg/s] !Hourly
403,1,Z3 RADIATOR,Baseboard Total Heating Rate [W] !Hourly
404,1,Z3 RADIATOR,Baseboard Hot Water Mass Flow Rate [kg/s] !Hourly
407,1,Z4 RADIATOR,Baseboard Total Heating Rate [W] !Hourly
408,1,Z4 RADIATOR,Baseboard Hot Water Mass Flow Rate [kg/s] !Hourly
409,1,HEAT PUMP,Heat Pump Load Side Heat Transfer Rate [W] !Hourly
423,1,HEAT PUMP,Heat Pump Load Side Inlet Temperature [C] !Hourly
424,1,HEAT PUMP,Heat Pump Electricity Rate [W] !Hourly
499,1,SUPPLY PUMP,Pump Electricity Rate [W] !Hourly
500,1,SUPPLY PUMP,Pump Fluid Heat Gain Rate [W] !Hourly
501,1,SUPPLY PUMP,Pump Mass Flow Rate [kg/s] !Hourly
529,1,Baseboard Total Heating Rate All Zones,PythonPlugin:OutputVariable [W] !Hourly
End of Data Dictionary
1,WINTER DESIGN DAY IN (MID) UK,  53.35,  -2.28,   0.00,  69.00
2,1, 1,15, 0, 1, 0.00,60.00,WinterDesignDay
7,-3.0
8,20.98925431712482
143,17.999848263169596
206,17.999848263169596
269,20.98925431712482
332,54.34562974649818
395,520.0366834356286
396,0.029496
399,312.89247075819753
400,0.0025708183593750006
403,312.89247075819753
404,0.0025708183593750006
407,520.0366834356286
408,0.029496
409,1663.5032525741267
423,51.28513920672237
424,766.2767020377976
499,1.9746644236728437
500,1.9746644236728437
501,0.12998674
529,1665.858308387652
2,1, 1,15, 0, 2, 0.00,60.00,WinterDesignDay
7,-3.0
8,20.98975666110791
143,17.99962912170432
206,17.99962912170432
269,20.98975666110791
332,54.34733866578189
395,520.0553689703792
396,0.029496
399,312.9117494882182
400,0.0025708183593750006
403,312.9117494882182
404,0.0025708183593750006
407,520.0553689703792
408,0.029496
409,1663.5425851377468
423,51.28677624177279
424,766.3207450597666
499,1.974665929629326
500,1.974665929629326
501,0.12998674
529,1665.9342369171948
2,1, 1,15, 0, 3, 0.00,60.00,WinterDesignDay
7,-3.0
8,20.99021902005424
143,17.99971615026953
206,17.99971615026953
269,20.99021902005424
332,54.34896830828729
395,520.0735560889173
396,0.029496
399,312.92546503724634
400,0.0025708183593750006
403,312.92546503724634
404,0.0025708183593750006
407,520.0735560889173
408,0.029496
409,1663.6032096258873
423,51.288294792794474
424,766.3733950300469
499,1.9746673265909647
500,1.9746673265909647
501,0.12998674
529,1665.9980422523272
2,1, 1,15, 0, 4, 0.00,60.00,WinterDesignDay
7,-3.0
8,20.99066774255615
143,17.999928000935704
206,17.999928000935704
269,20.99066774255615
332,54.350524294122735
395,520.0908681991913
396,0.029496
399,312.9372984566721
400,0.0025708183593750006
403,312.9372984566721
404,0.0025708183593750006
407,520.0908681991913
408,0.029496
409,1663.6584835934252
423,51.28974951229947
424,766.4224644293473
499,1.9746686648338876
500,1.9746686648338876
501,0.12998674
529,1666.056333311727
2,1, 1,15, 0, 5, 0.00,60.00,WinterDesignDay
7,-3.0
8,20.991114778495177
143,18.000202155588916
206,18.000202155588916
269,20.991114778495177
332,54.35200852409367
395,520.1071183489782
396,0.029496
399,312.9478924841497
400,0.0025708183593750006
403,312.9478924841497
404,0.0025708183593750006
407,520.1071183489782
408,0.029496
409,1663.7091843227627
423,51.29114087119241
424,766.4683398493222
499,1.9746699447910576
500,1.9746699447910576
501,0.12998674
529,1666.110021666256
2,1, 1,15, 0, 6, 0.00,60.00,WinterDesignDay
7,-3.0
8,20.991564190196975
143,18.00051565688098
206,18.00051565688098
269,20.991564190196975
332,54.35342117936917
395,520.1222238792681
396,0.029496
399,312.9574908205976
400,0.0025708183593750006
403,312.9574908205976
404,0.0025708183593750006
407,520.1222238792681
408,0.029496
409,1663.7555922460342
423,51.29246853460443
424,766.5111529514415
499,1.9746711661541902
500,1.9746711661541902
501,0.12998674
529,1666.1594293997314
2,1, 1,15, 0, 7, 0.00,60.00,WinterDesignDay
7,-3.0
8,20.991997735292674
143,17.99977852728992
206,17.99977852728992
269,20.991997735292674
332,54.354761872776045
395,520.1362596571232
396,0.029496
399,312.84569021774377
400,0.002569018066406251
403,312.84569021774377
404,0.002569018066406251
407,520.1362596571232
408,0.029496
409,1663.5567673117541
423,51.294175522881176
424,766.4398918998388
499,1.974672736473542
500,1.974672736473542
501,0.12998674
529,1665.963899749734
2,1, 1,15, 0, 8, 0.00,60.00,WinterDesignDay
7,-3.0
8,20.99238908093167
143,18.000005283300517
206,18.000005283300517
269,20.99238908093167
332,54.356034741438954
395,520.1500920670346
396,0.029496
399,312.8535045245133
400,0.0025690180664062505
403,312.8535045245133
404,0.0025690180664062505
407,520.1500920670346
408,0.029496
409,1663.5969000338564
423,51.295374907105696
424,766.477690826599
499,1.9746738398315404
500,1.9746738398315404
501,0.12998674
529,1666.007193183096
2,1, 1,15, 0, 9, 0.00,60.00,WinterDesignDay
7,-3.0
8,20.992755023690595
143,17.999852458038674
206,17.999852458038674
269,20.992755023690595
332,54.35724498356757
395,520.1630339012763
396,0.029496
399,312.86843568464417
400,0.002569018066406251
403,312.86843568464417
404,0.002569018066406251
407,520.1630339012763
408,0.029496
409,1663.6508765263538
423,51.296486169495175
424,766.5209212431188
499,1.9746748621237666
500,1.9746748621237666
501,0.12998674
529,1666.062939171841
2,1, 1,15, 0,10, 0.00,60.00,WinterDesignDay
7,-3.0
8,20.99307578141079
143,17.999453024522698
206,17.999453024522698
269,20.99307578141079
332,54.358397608263616
395,520.1759591049854
396,0.029496
399,312.74852915777973
400,0.002567217773437501
403,312.74852915777973
404,0.002567217773437501
407,520.1759591049854
408,0.029496
409,1663.4678392881056
423,51.29797597702282
424,766.4540720957341
499,1.974676232655857
500,1.974676232655857
501,0.12998674
529,1665.8489765255304
2,1, 1,15, 0,11, 0.00,60.00,WinterDesignDay
7,-3.0
8,20.99338184715098
143,17.99969346860506
206,17.99969346860506
269,20.99338184715098
332,54.359499228715876
395,520.1884227373156
396,0.029496
399,312.8893890745195
400,0.0025690180664062505
403,312.8893890745195
404,0.0025690180664062505
407,520.1884227373156
408,0.029496
409,1663.70509881459
423,51.29864128833834
424,766.5801041637019
499,1.9746768447022547
500,1.9746768447022547
501,0.12998674
529,1666.1556236236702
2,1, 1,15, 0,12, 0.00,60.00,WinterDesignDay
7,-3.0
8,20.99367881290418
143,18.0000480508702
206,18.0000480508702
269,20.99367881290418
332,54.36055242239597
395,520.2001957410744
396,0.029496
399,312.8960136135031
400,0.002569018066406251
403,312.8960136135031
404,0.002569018066406251
407,520.2001957410744
408,0.029496
409,1663.7740070227637
423,51.2995679754536
424,766.6278346964858
499,1.9746776971992683
500,1.9746776971992683
501,0.12998674
529,1666.192418709155
2,1, 1,15, 0,13, 0.00,60.00,WinterDesignDay
7,-3.0
8,20.993976899240582
143,17.99952493832123
206,17.99952493832123
269,20.993976899240582
332,54.3615577640189
395,520.2112881632868
396,0.029496
399,312.77659741165587
400,0.002567217773437501
403,312.77659741165587
404,0.002567217773437501
407,520.2112881632868
408,0.029496
409,1663.5546329617016
423,51.30097733006207
424,766.5420038928173
499,1.974678993723145
500,1.974678993723145
501,0.12998674
529,1665.9757711498855
2,1, 1,15, 0,14, 0.00,60.00,WinterDesignDay
7,-3.0
8,20.994242964598296
143,17.999362355940107
206,17.999362355940107
269,20.994242964598296
332,54.36251600816132
395,520.2219546777386
396,0.029496
399,312.7878338128164
400,0.002567217773437501
403,312.7878338128164
404,0.002567217773437501
407,520.2219546777386
408,0.029496
409,1663.596817033901
423,51.301858224724114
424,766.5759789294565
499,1.9746798040956357
500,1.9746798040956357
501,0.12998674
529,1666.0195769811098
2,1, 1,15, 0,15, 0.00,60.00,WinterDesignDay
7,-3.0
8,20.994482320175656
143,17.99934849650405
206,17.99934849650405
269,20.994482320175656
332,54.36343232002172
395,520.2324841237366
396,0.029496
399,312.7961219023897
400,0.002567217773437501
403,312.7961219023897
404,0.002567217773437501
407,520.2324841237366
408,0.029496
409,1663.632799828197
423,51.30270858068472
424,766.6064609907132
499,1.9746805863749064
500,1.9746805863749064
501,0.12998674
529,1666.057212052253
2,1, 1,15, 0,16, 0.00,60.00,WinterDesignDay
7,-3.0
8,20.994712189277617
143,17.999412950008285
206,17.999412950008285
269,20.994712189277617
332,54.36431055271442
395,520.2426125746745
396,0.029496
399,312.80329548441034
400,0.002567217773437501
403,312.80329548441034
404,0.002567217773437501
407,520.2426125746745
408,0.029496
409,1663.6658581494744
423,51.30352623460696
424,766.6350183130075
499,1.9746813385707407
500,1.9746813385707407
501,0.12998674
529,1666.0918161181698
2,1, 1,15, 0,17, 0.00,60.00,WinterDesignDay
7,-3.0
8,20.99494111956321
143,17.99952496075436
206,17.99952496075436
269,20.99494111956321
332,54.365152032967444
395,520.2522063732181
396,0.029496
399,312.8096926033385
400,0.002567217773437501
403,312.8096926033385
404,0.002567217773437501
407,520.2522063732181
408,0.029496
409,1663.696315978449
423,51.304311911456125
424,766.6618202153895
499,1.9746820613499976
500,1.9746820613499976
501,0.12998674
529,1666.123797953113
2,1, 1,15, 0,18, 0.00,60.00,WinterDesignDay
7,-3.0
8,20.995172792430044
143,17.99966811561303
206,17.99966811561303
269,20.995172792430044
332,54.36595683073136
395,520.2611947870995
396,0.029496
399,312.81547648377733
400,0.002567217773437501
403,312.81547648377733
404,0.002567217773437501
407,520.2611947870995
408,0.029496
409,1663.7243226247513
423,51.30506539910105
424,766.6869364739416
499,1.9746827545174637
500,1.9746827545174637
501,0.12998674
529,1666.1533425417535
2,1, 1,15, 0,19, 0.00,60.00,WinterDesignDay
7,-3.0
8,20.995408123641923
143,17.999832521456472
206,17.999832521456472
269,20.995408123641923
332,54.36672448569416
395,520.2695483955979
396,0.029496
399,312.8207399806364
400,0.002567217773437501
403,312.8207399806364
404,0.002567217773437501
407,520.2695483955979
408,0.029496
409,1663.7499944304286
423,51.30578603911505
424,766.7104136367388
499,1.9746834174673595
500,1.9746834174673595
501,0.12998674
529,1666.1805767524686
2,1, 1,15, 0,20, 0.00,60.00,WinterDesignDay
7,-3.0
8,20.995646562817257
143,18.000011659905855
206,18.000011659905855
269,20.995646562817257
332,54.36745442197588
395,520.2772622564695
396,0.029496
399,312.8255391794087
400,0.002567217773437501
403,312.8255391794087
404,0.002567217773437501
407,520.2772622564695
408,0.029496
409,1663.773432751323
423,51.30647305514466
424,766.7322896000054
499,1.97468404948542
500,1.97468404948542
501,0.12998674
529,1666.2056028717566
2,1, 1,15, 0,21, 0.00,60.00,WinterDesignDay
7,-3.0
8,20.995886850795074
143,17.999814527163863
206,17.999814527163863
269,20.995886850795074
332,54.36814616698789
395,520.2843464860669
396,0.029496
399,312.7012024384338
400,0.0025654174804687507
403,312.7012024384338
404,0.0025654174804687507
407,520.2843464860669
408,0.029496
409,1663.5704430521246
423,51.30753856508661
424,766.6492375301575
499,1.9746850296985186
500,1.9746850296985186
501,0.12998674
529,1665.9710978490011
2,1, 1,15, 0,22, 0.00,60.00,WinterDesignDay
7,-3.0
8,20.996109313843792
143,17.999891925410665
206,17.999891925410665
269,20.996109313843792
332,54.368799662593126
395,520.2909814459051
396,0.029496
399,312.8403657284716
400,0.002567217773437501
403,312.8403657284716
404,0.002567217773437501
407,520.2909814459051
408,0.029496
409,1663.7937851417691
423,51.30778123346762
424,766.7620791318071
499,1.9746852529408339
500,1.9746852529408339
501,0.12998674
529,1666.2626943487537
2,1, 1,15, 0,23, 0.00,60.00,WinterDesignDay
7,-3.0
8,20.996296770972307
143,17.999675852323115
206,17.999675852323115
269,20.996296770972307
332,54.36941846936829
395,520.2975989669424
396,0.029496
399,312.71493376430396
400,0.0025654174804687507
403,312.71493376430396
404,0.0025654174804687507
407,520.2975989669424
408,0.029496
409,1663.6219993218983
423,51.30871636392905
424,766.6922994272318
499,1.9746861132125155
500,1.9746861132125155
501,0.12998674
529,1666.0250654624926
2,1, 1,15, 0,24, 0.00,60.00,WinterDesignDay
7,-3.0
8,20.99647061339414
143,17.99951868981961
206,17.99951868981961
269,20.99647061339414
332,54.37000728806358
395,520.3041078058809
396,0.029496
399,312.72127539107544
400,0.0025654174804687507
403,312.72127539107544
404,0.0025654174804687507
407,520.3041078058809
408,0.029496
409,1663.612451426416
423,51.30932292625361
424,766.6968318142475
499,1.9746866712190292
500,1.9746866712190292
501,0.12998674
529,1666.0507663939127
End of Data
 Number of Records Written=         504
