Program Version,EnergyPlus, Version 24.2.0-94a887817b, YMD=2025.06.23 16:50
1,5,Environment Title[],Latitude[deg],Longitude[deg],Time Zone[],Elevation[m]
2,8,Day of Simulation[],Month[],Day of Month[],DST Indicator[1=yes 0=no],Hour[],StartMinute[],EndMinute[],DayType
3,5,Cumulative Day of Simulation[],Month[],Day of Month[],DST Indicator[1=yes 0=no],DayType  ! When Daily Report Variables Requested
4,2,Cumulative Days of Simulation[],Month[]  ! When Monthly Report Variables Requested
5,1,Cumulative Days of Simulation[] ! When Run Period Report Variables Requested
6,1,Calendar Year of Simulation[] ! When Annual Report Variables Requested
7,1,ZONE ONE,Zone Air Temperature [C] !Hourly
8,1,ZONE ONE,Zone Air System Sensible Heating Energy [J] !Hourly
142,1,ZONE ONE,Zone Predicted Sensible Load to Setpoint Heat Transfer Rate [W] !Hourly
205,1,RADIATOR,Baseboard Total Heating Rate [W] !Hourly
End of Data Dictionary
1,SUMMER DESIGN DAY IN SALFORD ENERGY HOUSE 1.0 (01-01:31-12) JUN HVAC Sizing Pass 1,  53.35,  -2.28,   0.00,  69.00
2,1, 6,15, 1, 1, 0.00,60.00,SummerDesignDay
7,20.99993838223237
8,570493.1453384775
142,158.52565472575498
205,158.47031814957708
2,1, 6,15, 1, 2, 0.00,60.00,SummerDesignDay
7,20.999997162270024
8,654289.9229418894
142,181.7434746772833
205,181.7472008171915
2,1, 6,15, 1, 3, 0.00,60.00,SummerDesignDay
7,21.00000192892161
8,723079.6531660798
142,200.84575455578852
205,200.85545921279996
2,1, 6,15, 1, 4, 0.00,60.00,SummerDesignDay
7,21.00005291102286
8,784253.8437271949
142,217.7863750578481
205,217.8482899242208
2,1, 6,15, 1, 5, 0.00,60.00,SummerDesignDay
7,21.00011551153939
8,832801.5432554223
142,231.2067212785514
205,231.33376201539505
2,1, 6,15, 1, 6, 0.00,60.00,SummerDesignDay
7,20.99987873691457
8,822968.6006211829
142,228.76782090555025
205,228.60238906143968
2,1, 6,15, 1, 7, 0.00,60.00,SummerDesignDay
7,21.000027377994204
8,720408.8555862891
142,200.07012107288847
205,200.1135709961914
2,1, 6,15, 1, 8, 0.00,60.00,SummerDesignDay
7,20.99998168524705
8,454082.75854033773
142,126.15633672472995
205,126.13409959453824
2,1, 6,15, 1, 9, 0.00,60.00,SummerDesignDay
7,21.015313517312094
8,70867.37692939579
142,-5.699026814399076
205,19.68538248038772
2,1, 6,15, 1,10, 0.00,60.00,SummerDesignDay
7,21.264458453302954
8,0.0
142,-300.73257544861826
205,0.0
2,1, 6,15, 1,11, 0.00,60.00,SummerDesignDay
7,21.894988229641143
8,0.0
142,-1135.5805312030152
205,0.0
2,1, 6,15, 1,12, 0.00,60.00,SummerDesignDay
7,22.68719192997259
8,0.0
142,-2238.954512996751
205,0.0
2,1, 6,15, 1,13, 0.00,60.00,SummerDesignDay
7,23.459313078678004
8,0.0
142,-3333.254233870249
205,0.0
2,1, 6,15, 1,14, 0.00,60.00,SummerDesignDay
7,24.14339617141583
8,0.0
142,-4311.320510876078
205,0.0
2,1, 6,15, 1,15, 0.00,60.00,SummerDesignDay
7,24.667926826370522
8,0.0
142,-5078.658642543808
205,0.0
2,1, 6,15, 1,16, 0.00,60.00,SummerDesignDay
7,24.93995847570551
8,0.0
142,-5508.248403478876
205,0.0
2,1, 6,15, 1,17, 0.00,60.00,SummerDesignDay
7,24.934274370708348
8,0.0
142,-7879.117894364967
205,0.0
2,1, 6,15, 1,18, 0.00,60.00,SummerDesignDay
7,24.742415940422084
8,0.0
142,-8292.040762170487
205,0.0
2,1, 6,15, 1,19, 0.00,60.00,SummerDesignDay
7,24.360607948214952
8,0.0
142,-7512.974837795036
205,0.0
2,1, 6,15, 1,20, 0.00,60.00,SummerDesignDay
7,23.798020114857582
8,0.0
142,-6318.178048632406
205,0.0
2,1, 6,15, 1,21, 0.00,60.00,SummerDesignDay
7,23.16644529410418
8,0.0
142,-4943.383647537357
205,0.0
2,1, 6,15, 1,22, 0.00,60.00,SummerDesignDay
7,22.517715401275527
8,0.0
142,-3521.5744518632064
205,0.0
2,1, 6,15, 1,23, 0.00,60.00,SummerDesignDay
7,21.872409749465874
8,0.0
142,-2097.2794761452487
205,0.0
2,1, 6,15, 1,24, 0.00,60.00,SummerDesignDay
7,21.256309628563805
8,0.0
142,-732.1245827906614
205,0.0
1,WINTER DESIGN DAY IN (MID) UK HVAC Sizing Pass 1,  53.35,  -2.28,   0.00,  69.00
2,1, 1,15, 0, 1, 0.00,60.00,WinterDesignDay
7,21.103724235986483
8,7222943.617193269
142,1726.0179517181095
205,2006.3732269981301
2,1, 1,15, 0, 2, 0.00,60.00,WinterDesignDay
7,21.103724235986483
8,7222943.617193269
142,1726.0179517181095
205,2006.3732269981301
2,1, 1,15, 0, 3, 0.00,60.00,WinterDesignDay
7,21.103724235986483
8,7222943.617193269
142,1726.0179517181095
205,2006.3732269981301
2,1, 1,15, 0, 4, 0.00,60.00,WinterDesignDay
7,21.103724235986483
8,7222943.617193269
142,1726.0179517181095
205,2006.3732269981301
2,1, 1,15, 0, 5, 0.00,60.00,WinterDesignDay
7,21.103724235986483
8,7222943.617193269
142,1726.0179517181095
205,2006.3732269981301
2,1, 1,15, 0, 6, 0.00,60.00,WinterDesignDay
7,21.103724235986483
8,7222943.617193269
142,1726.0179517181095
205,2006.3732269981301
2,1, 1,15, 0, 7, 0.00,60.00,WinterDesignDay
7,21.103724235986483
8,7222943.617193269
142,1726.0179517181095
205,2006.3732269981301
2,1, 1,15, 0, 8, 0.00,60.00,WinterDesignDay
7,21.103724235986483
8,7222943.617193269
142,1726.0179517181095
205,2006.3732269981301
2,1, 1,15, 0, 9, 0.00,60.00,WinterDesignDay
7,21.103724235986483
8,7222943.617193269
142,1726.0179517181095
205,2006.3732269981301
2,1, 1,15, 0,10, 0.00,60.00,WinterDesignDay
7,21.103724235986483
8,7222943.617193269
142,1726.0179517181095
205,2006.3732269981301
2,1, 1,15, 0,11, 0.00,60.00,WinterDesignDay
7,21.103724235986483
8,7222943.617193269
142,1726.0179517181095
205,2006.3732269981301
2,1, 1,15, 0,12, 0.00,60.00,WinterDesignDay
7,21.103724235986483
8,7222943.617193269
142,1726.0179517181095
205,2006.3732269981301
2,1, 1,15, 0,13, 0.00,60.00,WinterDesignDay
7,21.103724235986483
8,7222943.617193269
142,1726.0179517181095
205,2006.3732269981301
2,1, 1,15, 0,14, 0.00,60.00,WinterDesignDay
7,21.103724235986483
8,7222943.617193269
142,1726.0179517181095
205,2006.3732269981301
2,1, 1,15, 0,15, 0.00,60.00,WinterDesignDay
7,21.103724235986483
8,7222943.617193269
142,1726.0179517181095
205,2006.3732269981301
2,1, 1,15, 0,16, 0.00,60.00,WinterDesignDay
7,21.103724235986483
8,7222943.617193269
142,1726.0179517181095
205,2006.3732269981301
2,1, 1,15, 0,17, 0.00,60.00,WinterDesignDay
7,21.103724235986483
8,7222943.617193269
142,1726.0179517181095
205,2006.3732269981301
2,1, 1,15, 0,18, 0.00,60.00,WinterDesignDay
7,21.103724235986483
8,7222943.617193269
142,1726.0179517181095
205,2006.3732269981301
2,1, 1,15, 0,19, 0.00,60.00,WinterDesignDay
7,21.103724235986483
8,7222943.617193269
142,1726.0179517181095
205,2006.3732269981301
2,1, 1,15, 0,20, 0.00,60.00,WinterDesignDay
7,21.103724235986483
8,7222943.617193269
142,1726.0179517181095
205,2006.3732269981301
2,1, 1,15, 0,21, 0.00,60.00,WinterDesignDay
7,21.103724235986483
8,7222943.617193269
142,1726.0179517181095
205,2006.3732269981301
2,1, 1,15, 0,22, 0.00,60.00,WinterDesignDay
7,21.103724235986483
8,7222943.617193269
142,1726.0179517181095
205,2006.3732269981301
2,1, 1,15, 0,23, 0.00,60.00,WinterDesignDay
7,21.103724235986483
8,7222943.617193269
142,1726.0179517181095
205,2006.3732269981301
2,1, 1,15, 0,24, 0.00,60.00,WinterDesignDay
7,21.103724235986483
8,7222943.617193269
142,1726.0179517181095
205,2006.3732269981301
1,SUMMER DESIGN DAY IN SALFORD ENERGY HOUSE 1.0 (01-01:31-12) JUN,  53.35,  -2.28,   0.00,  69.00
2,1, 6,15, 1, 1, 0.00,60.00,SummerDesignDay
7,20.99993838223237
8,570493.1453384775
142,158.52565472575498
205,158.47031814957708
2,1, 6,15, 1, 2, 0.00,60.00,SummerDesignDay
7,20.999997162270024
8,654289.9229418894
142,181.7434746772833
205,181.7472008171915
2,1, 6,15, 1, 3, 0.00,60.00,SummerDesignDay
7,21.00000192892161
8,723079.6531660798
142,200.84575455578852
205,200.85545921279996
2,1, 6,15, 1, 4, 0.00,60.00,SummerDesignDay
7,21.00005291102286
8,784253.8437271949
142,217.7863750578481
205,217.8482899242208
2,1, 6,15, 1, 5, 0.00,60.00,SummerDesignDay
7,21.00011551153939
8,832801.5432554223
142,231.2067212785514
205,231.33376201539505
2,1, 6,15, 1, 6, 0.00,60.00,SummerDesignDay
7,20.99987873691457
8,822968.6006211829
142,228.76782090555025
205,228.60238906143968
2,1, 6,15, 1, 7, 0.00,60.00,SummerDesignDay
7,21.000027377994204
8,720408.8555862891
142,200.07012107288847
205,200.1135709961914
2,1, 6,15, 1, 8, 0.00,60.00,SummerDesignDay
7,20.99998168524705
8,454082.75854033773
142,126.15633672472995
205,126.13409959453824
2,1, 6,15, 1, 9, 0.00,60.00,SummerDesignDay
7,21.015313517312094
8,70867.37692939579
142,-5.699026814399076
205,19.68538248038772
2,1, 6,15, 1,10, 0.00,60.00,SummerDesignDay
7,21.264458453302954
8,0.0
142,-300.73257544861826
205,0.0
2,1, 6,15, 1,11, 0.00,60.00,SummerDesignDay
7,21.894988229641143
8,0.0
142,-1135.5805312030152
205,0.0
2,1, 6,15, 1,12, 0.00,60.00,SummerDesignDay
7,22.68719192997259
8,0.0
142,-2238.954512996751
205,0.0
2,1, 6,15, 1,13, 0.00,60.00,SummerDesignDay
7,23.459313078678004
8,0.0
142,-3333.254233870249
205,0.0
2,1, 6,15, 1,14, 0.00,60.00,SummerDesignDay
7,24.14339617141583
8,0.0
142,-4311.320510876078
205,0.0
2,1, 6,15, 1,15, 0.00,60.00,SummerDesignDay
7,24.667926826370522
8,0.0
142,-5078.658642543808
205,0.0
2,1, 6,15, 1,16, 0.00,60.00,SummerDesignDay
7,24.93995847570551
8,0.0
142,-5508.248403478876
205,0.0
2,1, 6,15, 1,17, 0.00,60.00,SummerDesignDay
7,24.934274370708348
8,0.0
142,-7879.117894364967
205,0.0
2,1, 6,15, 1,18, 0.00,60.00,SummerDesignDay
7,24.742415940422084
8,0.0
142,-8292.040762170487
205,0.0
2,1, 6,15, 1,19, 0.00,60.00,SummerDesignDay
7,24.360607948214952
8,0.0
142,-7512.974837795036
205,0.0
2,1, 6,15, 1,20, 0.00,60.00,SummerDesignDay
7,23.798020114857582
8,0.0
142,-6318.178048632406
205,0.0
2,1, 6,15, 1,21, 0.00,60.00,SummerDesignDay
7,23.16644529410418
8,0.0
142,-4943.383647537357
205,0.0
2,1, 6,15, 1,22, 0.00,60.00,SummerDesignDay
7,22.517715401275527
8,0.0
142,-3521.5744518632064
205,0.0
2,1, 6,15, 1,23, 0.00,60.00,SummerDesignDay
7,21.872409749465874
8,0.0
142,-2097.2794761452487
205,0.0
2,1, 6,15, 1,24, 0.00,60.00,SummerDesignDay
7,21.256309628563805
8,0.0
142,-732.1245827906614
205,0.0
1,WINTER DESIGN DAY IN (MID) UK,  53.35,  -2.28,   0.00,  69.00
2,1, 1,15, 0, 1, 0.00,60.00,WinterDesignDay
7,21.103724235986483
8,7222943.617193269
142,1726.0179517181095
205,2006.3732269981301
2,1, 1,15, 0, 2, 0.00,60.00,WinterDesignDay
7,21.103724235986483
8,7222943.617193269
142,1726.0179517181095
205,2006.3732269981301
2,1, 1,15, 0, 3, 0.00,60.00,WinterDesignDay
7,21.103724235986483
8,7222943.617193269
142,1726.0179517181095
205,2006.3732269981301
2,1, 1,15, 0, 4, 0.00,60.00,WinterDesignDay
7,21.103724235986483
8,7222943.617193269
142,1726.0179517181095
205,2006.3732269981301
2,1, 1,15, 0, 5, 0.00,60.00,WinterDesignDay
7,21.103724235986483
8,7222943.617193269
142,1726.0179517181095
205,2006.3732269981301
2,1, 1,15, 0, 6, 0.00,60.00,WinterDesignDay
7,21.103724235986483
8,7222943.617193269
142,1726.0179517181095
205,2006.3732269981301
2,1, 1,15, 0, 7, 0.00,60.00,WinterDesignDay
7,21.103724235986483
8,7222943.617193269
142,1726.0179517181095
205,2006.3732269981301
2,1, 1,15, 0, 8, 0.00,60.00,WinterDesignDay
7,21.103724235986483
8,7222943.617193269
142,1726.0179517181095
205,2006.3732269981301
2,1, 1,15, 0, 9, 0.00,60.00,WinterDesignDay
7,21.103724235986483
8,7222943.617193269
142,1726.0179517181095
205,2006.3732269981301
2,1, 1,15, 0,10, 0.00,60.00,WinterDesignDay
7,21.103724235986483
8,7222943.617193269
142,1726.0179517181095
205,2006.3732269981301
2,1, 1,15, 0,11, 0.00,60.00,WinterDesignDay
7,21.103724235986483
8,7222943.617193269
142,1726.0179517181095
205,2006.3732269981301
2,1, 1,15, 0,12, 0.00,60.00,WinterDesignDay
7,21.103724235986483
8,7222943.617193269
142,1726.0179517181095
205,2006.3732269981301
2,1, 1,15, 0,13, 0.00,60.00,WinterDesignDay
7,21.103724235986483
8,7222943.617193269
142,1726.0179517181095
205,2006.3732269981301
2,1, 1,15, 0,14, 0.00,60.00,WinterDesignDay
7,21.103724235986483
8,7222943.617193269
142,1726.0179517181095
205,2006.3732269981301
2,1, 1,15, 0,15, 0.00,60.00,WinterDesignDay
7,21.103724235986483
8,7222943.617193269
142,1726.0179517181095
205,2006.3732269981301
2,1, 1,15, 0,16, 0.00,60.00,WinterDesignDay
7,21.103724235986483
8,7222943.617193269
142,1726.0179517181095
205,2006.3732269981301
2,1, 1,15, 0,17, 0.00,60.00,WinterDesignDay
7,21.103724235986483
8,7222943.617193269
142,1726.0179517181095
205,2006.3732269981301
2,1, 1,15, 0,18, 0.00,60.00,WinterDesignDay
7,21.103724235986483
8,7222943.617193269
142,1726.0179517181095
205,2006.3732269981301
2,1, 1,15, 0,19, 0.00,60.00,WinterDesignDay
7,21.103724235986483
8,7222943.617193269
142,1726.0179517181095
205,2006.3732269981301
2,1, 1,15, 0,20, 0.00,60.00,WinterDesignDay
7,21.103724235986483
8,7222943.617193269
142,1726.0179517181095
205,2006.3732269981301
2,1, 1,15, 0,21, 0.00,60.00,WinterDesignDay
7,21.103724235986483
8,7222943.617193269
142,1726.0179517181095
205,2006.3732269981301
2,1, 1,15, 0,22, 0.00,60.00,WinterDesignDay
7,21.103724235986483
8,7222943.617193269
142,1726.0179517181095
205,2006.3732269981301
2,1, 1,15, 0,23, 0.00,60.00,WinterDesignDay
7,21.103724235986483
8,7222943.617193269
142,1726.0179517181095
205,2006.3732269981301
2,1, 1,15, 0,24, 0.00,60.00,WinterDesignDay
7,21.103724235986483
8,7222943.617193269
142,1726.0179517181095
205,2006.3732269981301
End of Data
 Number of Records Written=         384
