Program Version,EnergyPlus, Version 24.2.0-94a887817b, YMD=2026.01.14 16:17
1,5,Environment Title[],Latitude[deg],Longitude[deg],Time Zone[],Elevation[m]
2,8,Day of Simulation[],Month[],Day of Month[],DST Indicator[1=yes 0=no],Hour[],StartMinute[],EndMinute[],DayType
3,5,Cumulative Day of Simulation[],Month[],Day of Month[],DST Indicator[1=yes 0=no],DayType  ! When Daily Report Variables Requested
4,2,Cumulative Days of Simulation[],Month[]  ! When Monthly Report Variables Requested
5,1,Cumulative Days of Simulation[] ! When Run Period Report Variables Requested
6,1,Calendar Year of Simulation[] ! When Annual Report Variables Requested
7,1,Environment,Site Outdoor Air Drybulb Temperature [C] !Hourly
8,1,Z1,Zone Operative Temperature [C] !Hourly
9,1,Z2,Zone Operative Temperature [C] !Hourly
10,1,Z3,Zone Operative Temperature [C] !Hourly
11,1,Z4,Zone Operative Temperature [C] !Hourly
12,1,Z1,Zone Air Temperature [C] !Hourly
147,1,Z2,Zone Air Temperature [C] !Hourly
210,1,Z3,Zone Air Temperature [C] !Hourly
273,1,Z4,Zone Air Temperature [C] !Hourly
336,1,HOT WATER LOOP,Plant Supply Side Outlet Temperature [C] !Hourly
399,1,Z1 RADIATOR,Baseboard Total Heating Rate [W] !Hourly
400,1,Z1 RADIATOR,Baseboard Hot Water Mass Flow Rate [kg/s] !Hourly
403,1,Z2 RADIATOR,Baseboard Total Heating Rate [W] !Hourly
404,1,Z2 RADIATOR,Baseboard Hot Water Mass Flow Rate [kg/s] !Hourly
407,1,Z3 RADIATOR,Baseboard Total Heating Rate [W] !Hourly
408,1,Z3 RADIATOR,Baseboard Hot Water Mass Flow Rate [kg/s] !Hourly
411,1,Z4 RADIATOR,Baseboard Total Heating Rate [W] !Hourly
412,1,Z4 RADIATOR,Baseboard Hot Water Mass Flow Rate [kg/s] !Hourly
413,1,HEAT PUMP,Heat Pump Load Side Heat Transfer Rate [W] !Hourly
427,1,HEAT PUMP,Heat Pump Load Side Inlet Temperature [C] !Hourly
428,1,HEAT PUMP,Heat Pump Electricity Rate [W] !Hourly
503,1,SUPPLY PUMP,Pump Electricity Rate [W] !Hourly
504,1,SUPPLY PUMP,Pump Fluid Heat Gain Rate [W] !Hourly
505,1,SUPPLY PUMP,Pump Mass Flow Rate [kg/s] !Hourly
533,1,Baseboard Total Heating Rate All Zones,PythonPlugin:OutputVariable [W] !Hourly
End of Data Dictionary
1,WINTER DESIGN DAY IN (MID) UK,  53.35,  -2.28,   0.00,  69.00
2,1, 1,15, 0, 1, 0.00,60.00,WinterDesignDay
7,-3.0
8,19.130789415796496
9,19.130789415796496
10,19.130789415801825
11,19.130789415801825
12,20.991395286451354
147,20.991395286451354
210,20.99139528645629
273,20.99139528645629
336,51.357573219053066
399,473.40897376515204
400,0.029496
403,473.40897376515204
404,0.029496
407,473.4089737650745
408,0.029496
411,473.4089737650745
412,0.029496
413,1891.277354326074
427,47.877245786956095
428,819.6636466742688
503,1.9716190126226802
504,1.9716190126226802
505,0.12998674
533,1893.6358950604529
2,1, 1,15, 0, 2, 0.00,60.00,WinterDesignDay
7,-3.0
8,19.13154359763793
9,19.13154359763793
10,19.131543597642676
11,19.131543597642676
12,20.99216528136331
147,20.99216528136331
210,20.99216528136776
273,20.99216528136776
336,51.358934508119034
399,473.41816913833435
400,0.029496
403,473.41816913833435
404,0.029496
407,473.41816913826244
408,0.029496
411,473.41816913826244
412,0.029496
413,1891.309632870065
427,47.87854789395787
428,819.7011144600069
503,1.9716201548572048
504,1.9716201548572048
505,0.12998674
533,1893.6726765531935
2,1, 1,15, 0, 3, 0.00,60.00,WinterDesignDay
7,-3.0
8,19.132277356202632
9,19.132277356202632
10,19.13227735620646
11,19.13227735620646
12,20.992909281420353
147,20.992909281420353
210,20.992909281423987
273,20.992909281423987
336,51.36017311404041
399,473.4258478225781
400,0.029496
403,473.4258478225781
404,0.029496
407,473.4258478225178
408,0.029496
411,473.4258478225178
412,0.029496
413,1891.3359907866206
427,47.87973819416285
428,819.7339009705139
503,1.9716211990137098
504,1.9716211990137098
505,0.12998674
533,1893.7033912901916
2,1, 1,15, 0, 4, 0.00,60.00,WinterDesignDay
7,-3.0
8,19.132988728174375
9,19.132988728174375
10,19.13298872817709
11,19.13298872817709
12,20.993625744221877
147,20.993625744221877
210,20.99362574422452
273,20.99362574422452
336,51.36129322754729
399,473.43210004133175
400,0.029496
403,473.43210004133175
404,0.029496
407,473.43210004128645
408,0.029496
411,473.43210004128645
412,0.029496
413,1891.3568033994743
427,47.88082018847628
428,819.7622408719258
503,1.9716221481629577
504,1.9716221481629577
505,0.12998674
533,1893.7284001652365
2,1, 1,15, 0, 5, 0.00,60.00,WinterDesignDay
7,-3.0
8,19.133676027508702
9,19.133676027508702
10,19.13367602751002
11,19.13367602751002
12,20.99431339446762
147,20.99431339446762
210,20.994313394469014
273,20.994313394469014
336,51.36229928071346
399,473.4370156537097
400,0.029496
403,473.4370156537097
404,0.029496
407,473.437015653683
408,0.029496
411,473.437015653683
412,0.029496
413,1891.3724379392338
427,47.88179763372948
428,819.7863695409831
503,1.9716230056002522
504,1.9716230056002522
505,0.12998674
533,1893.7480626147853
2,1, 1,15, 0, 6, 0.00,60.00,WinterDesignDay
7,-3.0
8,19.1343378306048
9,19.1343378306048
10,19.134337830604764
11,19.134337830604764
12,20.994971208213236
147,20.994971208213236
210,20.99497120821338
273,20.99497120821338
336,51.363195904586036
399,473.44068381493514
400,0.029496
403,473.44068381493514
404,0.029496
407,473.44068381492906
408,0.029496
411,473.44068381492906
412,0.029496
413,1891.383252294353
427,47.88267450227133
428,819.8065217865325
503,1.9716237748099936
504,1.9716237748099936
505,0.12998674
533,1893.7627352597283
2,1, 1,15, 0, 7, 0.00,60.00,WinterDesignDay
7,-3.0
8,19.13497296108527
9,19.13497296108527
10,19.134972961084564
11,19.134972961084564
12,20.99559839615781
147,20.99559839615781
210,20.99559839615725
273,20.99559839615725
336,51.36398788935621
399,473.4431922773287
400,0.029496
403,473.4431922773287
404,0.029496
407,473.44319227733615
408,0.029496
411,473.44319227733615
412,0.029496
413,1891.3896058144423
427,47.88345492519273
428,819.8229358392251
503,1.9716244594158703
504,1.9716244594158703
505,0.12998674
533,1893.7727691093296
2,1, 1,15, 0, 8, 0.00,60.00,WinterDesignDay
7,-3.0
8,19.135580475864835
9,19.135580475864835
10,19.135580475864156
11,19.135580475864156
12,20.99619438976425
147,20.99619438976425
210,20.996194389763655
273,20.996194389763655
336,51.364680147057
399,473.4446273760315
400,0.029496
403,473.4446273760315
404,0.029496
407,473.4446273760409
408,0.029496
411,473.4446273760409
412,0.029496
413,1891.3918436044846
427,47.88414318034415
428,819.8358458949563
503,1.9716250631703425
504,1.9716250631703425
505,0.12998674
533,1893.778509504145
2,1, 1,15, 0, 9, 0.00,60.00,WinterDesignDay
7,-3.0
8,19.1361596498055
9,19.1361596498055
10,19.13615964980481
11,19.13615964980481
12,20.99675882432241
147,20.99675882432241
210,20.996758824321798
273,20.996758824321798
336,51.36527767654674
399,473.4450733325459
400,0.029496
403,473.4450733325459
404,0.029496
407,473.4450733325553
408,0.029496
411,473.4450733325553
412,0.029496
413,1891.3903097000696
427,47.884743632504055
428,819.8454872162791
503,1.9716255899021573
504,1.9716255899021573
505,0.12998674
533,1893.7802933302028
2,1, 1,15, 0,10, 0.00,60.00,WinterDesignDay
7,-3.0
8,19.13670996184579
9,19.13670996184579
10,19.136709961845174
11,19.136709961845174
12,20.997291525456788
147,20.997291525456788
210,20.997291525456234
273,20.997291525456234
336,51.365785531178616
399,473.4446124442441
400,0.029496
403,473.4446124442441
404,0.029496
407,473.4446124442533
408,0.029496
411,473.4446124442533
412,0.029496
413,1891.385332409879
427,47.88526073244097
428,819.8520892163177
503,1.9716260435155206
504,1.9716260435155206
505,0.12998674
533,1893.7784497769949
2,1, 1,15, 0,11, 0.00,60.00,WinterDesignDay
7,-3.0
8,19.13723108082025
9,19.13723108082025
10,19.13723108081961
11,19.13723108081961
12,20.997792494223155
147,20.997792494223155
210,20.997792494222598
273,20.997792494222598
336,51.36620878868325
399,473.4433245665796
400,0.029496
403,473.4433245665796
404,0.029496
407,473.4433245665879
408,0.029496
411,473.4433245665879
412,0.029496
413,1891.3772285208427
427,47.885698975355794
428,819.8558767572752
503,1.9716264279536395
504,1.9716264279536395
505,0.12998674
533,1893.773298266335
2,1, 1,15, 0,12, 0.00,60.00,WinterDesignDay
7,-3.0
8,19.137722850285236
9,19.137722850285236
10,19.137722850284256
11,19.137722850284256
12,20.998261890698355
147,20.998261890698355
210,20.998261890697503
273,20.998261890697503
336,51.366552523414185
399,473.441286863593
400,0.029496
403,473.441286863593
404,0.029496
407,473.4412868636049
408,0.029496
411,473.4412868636049
412,0.029496
413,1891.3663106799456
427,47.8860628619996
428,819.8570728672282
503,1.9716267471646112
504,1.9716267471646112
505,0.12998674
533,1893.7651474543957
2,1, 1,15, 0,13, 0.00,60.00,WinterDesignDay
7,-3.0
8,19.138185275860426
9,19.138185275860426
10,19.138185275859094
11,19.138185275859094
12,20.99870002217925
147,20.99870002217925
210,20.99870002217807
273,20.99870002217807
336,51.366821781116954
399,473.4385738555473
400,0.029496
403,473.4385738555473
404,0.029496
407,473.43857385556487
408,0.029496
411,473.43857385556487
412,0.029496
413,1891.3528720672966
427,47.886356898377656
428,819.8558916573066
503,1.9716270051011617
504,1.9716270051011617
505,0.12998674
533,1893.7542954222242
2,1, 1,15, 0,14, 0.00,60.00,WinterDesignDay
7,-3.0
8,19.138618510563486
9,19.138618510563486
10,19.138618510562054
11,19.138618510562054
12,20.99910732716079
147,20.99910732716079
210,20.999107327159493
273,20.999107327159493
336,51.36702155571936
399,473.43525699681777
400,0.029496
403,473.43525699681777
404,0.029496
407,473.4352569968381
408,0.029496
411,473.4352569968381
412,0.029496
413,1891.3372007597534
427,47.88658554796811
428,819.852544144111
503,1.9716272056787252
504,1.9716272056787252
505,0.12998674
533,1893.741027987312
2,1, 1,15, 0,15, 0.00,60.00,WinterDesignDay
7,-3.0
8,19.13902284308213
9,19.13902284308213
10,19.139022843080532
11,19.139022843080532
12,20.999484364888897
147,20.999484364888897
210,20.999484364887458
273,20.999484364887458
336,51.367156768543026
399,473.4314049343264
400,0.029496
403,473.4314049343264
404,0.029496
407,473.4314049343478
408,0.029496
411,473.4314049343478
412,0.029496
413,1891.3195623439728
427,47.88675324467295
428,819.847230351285
503,1.971627352786806
504,1.971627352786806
505,0.12998674
533,1893.7256197373483
2,1, 1,15, 0,16, 0.00,60.00,WinterDesignDay
7,-3.0
8,19.13939868346909
9,19.13939868346909
10,19.139398683467196
11,19.139398683467196
12,20.999831799331805
147,20.999831799331805
210,20.999831799330103
273,20.999831799330103
336,51.367232249284
399,473.42708295468026
400,0.029496
403,473.42708295468026
404,0.029496
407,473.42708295470595
408,0.029496
411,473.42708295470595
412,0.029496
413,1891.3002220370633
427,47.88686433514126
428,819.8401485676075
503,1.9716274502383786
504,1.9716274502383786
505,0.12998674
533,1893.7083318187724
2,1, 1,15, 0,17, 0.00,60.00,WinterDesignDay
7,-3.0
8,19.139746552645036
9,19.139746552645036
10,19.13974655264289
11,19.13974655264289
12,21.000150390807846
147,21.000150390807846
210,21.0001503908059
273,21.0001503908059
336,51.36725271949685
399,473.42235357509963
400,0.029496
403,473.42235357509963
404,0.029496
407,473.422353575129
408,0.029496
411,473.422353575129
412,0.029496
413,1891.2794095200818
427,47.886923114338195
428,819.8314798159325
503,1.9716275018010887
504,1.9716275018010887
505,0.12998674
533,1893.6894143004574
2,1, 1,15, 0,18, 0.00,60.00,WinterDesignDay
7,-3.0
8,19.14006706736474
9,19.14006706736474
10,19.140067067362477
11,19.140067067362477
12,21.00044097749301
147,21.00044097749301
210,21.000440977490943
273,21.000440977490943
336,51.36722277747647
399,473.4172752754645
400,0.029496
403,473.4172752754645
404,0.029496
407,473.4172752754962
408,0.029496
411,473.4172752754962
412,0.029496
413,1891.2573752561404
427,47.886933719738124
428,819.8214120032811
503,1.9716275111044343
504,1.9716275111044343
505,0.12998674
533,1893.6691011019213
2,1, 1,15, 0,19, 0.00,60.00,WinterDesignDay
7,-3.0
8,19.140360933052072
9,19.140360933052072
10,19.140360933049795
11,19.140360933049795
12,21.000704473375897
147,21.000704473375897
210,21.0007044733738
273,21.0007044733738
336,51.36714688581756
399,473.41190417694037
400,0.029496
403,473.41190417694037
404,0.029496
407,473.4119041769737
408,0.029496
411,473.4119041769737
412,0.029496
413,1891.2343234381046
427,47.88690024483742
428,819.8101106388896
503,1.9716274817393404
504,1.9716274817393404
505,0.12998674
533,1893.647616707828
2,1, 1,15, 0,20, 0.00,60.00,WinterDesignDay
7,-3.0
8,19.140628929505922
9,19.140628929505922
10,19.140628929504032
11,19.140628929504032
12,21.000941849918647
147,21.000941849918647
210,21.000941849916856
273,21.000941849916856
336,51.367029359764075
399,473.4062925974226
400,0.029496
403,473.4062925974226
404,0.029496
407,473.40629259745265
408,0.029496
411,473.40629259745265
412,0.029496
413,1891.2104591730224
427,47.88682662012694
428,819.7977390855247
503,1.9716274171537438
504,1.9716274171537438
505,0.12998674
533,1893.6251703897503
2,1, 1,15, 0,21, 0.00,60.00,WinterDesignDay
7,-3.0
8,19.14087190170801
9,19.14087190170801
10,19.140871901706753
11,19.140871901706753
12,21.001154128987245
147,21.001154128987245
210,21.001154128986023
273,21.001154128986023
336,51.36687435807879
399,473.4004896341628
400,0.029496
403,473.4004896341628
404,0.029496
407,473.40048963418405
408,0.029496
411,473.40048963418405
412,0.029496
413,1891.1859798930207
427,47.88671664729995
428,819.7844546778116
503,1.9716273206825994
504,1.9716273206825994
505,0.12998674
533,1893.6019585366937
2,1, 1,15, 0,22, 0.00,60.00,WinterDesignDay
7,-3.0
8,19.14109075045171
9,19.14109075045171
10,19.141090750450882
11,19.141090750450882
12,21.00134237408733
147,21.00134237408733
210,21.001342374086526
273,21.001342374086526
336,51.36668587516087
399,473.3945412884863
400,0.029496
403,473.3945412884863
404,0.029496
407,473.3945412884997
408,0.029496
411,473.3945412884997
412,0.029496
413,1891.1610603758568
427,47.88657399863851
428,819.7704020923093
503,1.9716271955473414
504,1.9716271955473414
505,0.12998674
533,1893.578165153972
2,1, 1,15, 0,23, 0.00,60.00,WinterDesignDay
7,-3.0
8,19.141286421918103
9,19.141286421918103
10,19.141286421917247
11,19.141286421917247
12,21.00150767927772
147,21.00150767927772
210,21.00150767927693
273,21.00150767927693
336,51.36646773466046
399,473.38849021497356
400,0.029496
403,473.38849021497356
404,0.029496
407,473.38849021498544
408,0.029496
411,473.38849021498544
412,0.029496
413,1891.1358710170105
427,47.88640218508025
428,819.7557211574274
503,1.9716270448278699
504,1.9716270448278699
505,0.12998674
533,1893.5539608599179
2,1, 1,15, 0,24, 0.00,60.00,WinterDesignDay
7,-3.0
8,19.14145990152
9,19.14145990152
10,19.141459901518992
11,19.141459901518992
12,21.001651165536284
147,21.001651165536284
210,21.00165116553536
273,21.00165116553536
336,51.3662235845255
399,473.38237634229586
400,0.029496
403,473.38237634229586
404,0.029496
407,473.3823763423101
408,0.029496
411,473.3823763423101
412,0.029496
413,1891.110547573308
427,47.88620460146012
428,819.7405336523607
503,1.9716268715022354
504,1.9716268715022354
505,0.12998674
533,1893.529505369212
End of Data
 Number of Records Written=         600
