Program Version,EnergyPlus, Version 24.2.0-94a887817b, YMD=2026.03.31 11:03
1,5,Environment Title[],Latitude[deg],Longitude[deg],Time Zone[],Elevation[m]
2,8,Day of Simulation[],Month[],Day of Month[],DST Indicator[1=yes 0=no],Hour[],StartMinute[],EndMinute[],DayType
3,5,Cumulative Day of Simulation[],Month[],Day of Month[],DST Indicator[1=yes 0=no],DayType  ! When Daily Report Variables Requested
4,2,Cumulative Days of Simulation[],Month[]  ! When Monthly Report Variables Requested
5,1,Cumulative Days of Simulation[] ! When Run Period Report Variables Requested
6,1,Calendar Year of Simulation[] ! When Annual Report Variables Requested
7,1,Environment,Site Outdoor Air Drybulb Temperature [C] !Hourly
8,1,Z1,Zone Air Temperature [C] !Hourly
143,1,Z2,Zone Air Temperature [C] !Hourly
206,1,Z3,Zone Air Temperature [C] !Hourly
269,1,Z4,Zone Air Temperature [C] !Hourly
332,1,HOT WATER LOOP,Plant Supply Side Outlet Temperature [C] !Hourly
395,1,Z1 RADIATOR,Baseboard Total Heating Rate [W] !Hourly
396,1,Z1 RADIATOR,Baseboard Hot Water Mass Flow Rate [kg/s] !Hourly
399,1,Z2 RADIATOR,Baseboard Total Heating Rate [W] !Hourly
400,1,Z2 RADIATOR,Baseboard Hot Water Mass Flow Rate [kg/s] !Hourly
403,1,Z3 RADIATOR,Baseboard Total Heating Rate [W] !Hourly
404,1,Z3 RADIATOR,Baseboard Hot Water Mass Flow Rate [kg/s] !Hourly
407,1,Z4 RADIATOR,Baseboard Total Heating Rate [W] !Hourly
408,1,Z4 RADIATOR,Baseboard Hot Water Mass Flow Rate [kg/s] !Hourly
409,1,HEAT PUMP,Heat Pump Load Side Heat Transfer Rate [W] !Hourly
423,1,HEAT PUMP,Heat Pump Load Side Inlet Temperature [C] !Hourly
424,1,HEAT PUMP,Heat Pump Load Side Outlet Temperature [C] !Hourly
425,1,HEAT PUMP,Heat Pump Electricity Rate [W] !Hourly
500,1,SUPPLY PUMP,Pump Electricity Rate [W] !Hourly
501,1,SUPPLY PUMP,Pump Fluid Heat Gain Rate [W] !Hourly
502,1,SUPPLY PUMP,Pump Mass Flow Rate [kg/s] !Hourly
530,1,Baseboard Total Heating Rate All Zones,PythonPlugin:OutputVariable [W] !Hourly
End of Data Dictionary
1,WINTER DESIGN DAY IN (MID) UK,  53.35,  -2.28,   0.00,  69.00
2,1, 1,15, 0, 1, 0.00,60.00,WinterDesignDay
7,-3.0
8,20.55201558730083
143,20.55201558730083
206,17.99962446729161
269,17.99962446729161
332,46.032
395,545.3853886280629
396,0.029496
399,545.3853886280629
400,0.029496
403,391.88929360675525
404,0.0047059658203125005
407,391.88929360675525
408,0.0047059658203125005
409,1872.4525168730386
423,42.58583966412819
424,46.032
425,720.5692188531141
500,1.9671798273026924
501,1.9671798273026924
502,0.12998674
530,1874.5493644696362
2,1, 1,15, 0, 2, 0.00,60.00,WinterDesignDay
7,-3.0
8,20.552014667061528
143,20.552014667061528
206,17.999183964642654
269,17.999183964642654
332,46.032
395,545.3854576786038
396,0.029496
399,545.3854576786038
400,0.029496
403,391.74473301929515
404,0.004702365234375
407,391.74473301929515
408,0.004702365234375
409,1872.1997807149185
423,42.58630481307893
424,46.032
425,720.4719592994585
500,1.9671801965777518
501,1.9671801965777518
502,0.12998674
530,1874.2603813957978
2,1, 1,15, 0, 3, 0.00,60.00,WinterDesignDay
7,-3.0
8,20.55201070856077
143,20.55201070856077
206,17.99941134349397
269,17.99941134349397
332,46.032
395,545.3854890242947
396,0.029496
399,545.3854890242947
400,0.029496
403,391.7414710046468
404,0.004702365234375
407,391.7414710046468
408,0.004702365234375
409,1872.231321882264
423,42.58624676305156
424,46.032
425,720.4840971743104
500,1.9671801504927
501,1.9671801504927
502,0.12998674
530,1874.253920057883
2,1, 1,15, 0, 4, 0.00,60.00,WinterDesignDay
7,-3.0
8,20.552008865208343
143,20.552008865208343
206,17.999647139211355
269,17.999647139211355
332,46.032
395,545.3855602360892
396,0.029496
399,545.3855602360892
400,0.029496
403,391.88653162872254
404,0.0047059658203125
407,391.88653162872254
408,0.0047059658203125
409,1872.4474965464667
423,42.585848903801896
424,46.032
425,720.5672868987582
500,1.9671798346379439
501,1.9671798346379439
502,0.12998674
530,1874.5441837296237
2,1, 1,15, 0, 5, 0.00,60.00,WinterDesignDay
7,-3.0
8,20.55201216637915
143,20.55201216637915
206,17.999470843058006
269,17.999470843058006
332,46.032
395,545.3854821607366
396,0.029496
399,545.3854821607366
400,0.029496
403,391.74080733631763
404,0.004702365234375
407,391.74080733631763
408,0.004702365234375
409,1872.2298677323315
423,42.58624943934577
424,46.032
425,720.4835375789821
500,1.967180152617372
501,1.967180152617372
502,0.12998674
530,1874.2525789941085
2,1, 1,15, 0, 6, 0.00,60.00,WinterDesignDay
7,-3.0
8,20.55201305154246
143,20.55201305154246
206,17.999687786962124
269,17.999687786962124
332,46.032
395,545.3854840995566
396,0.029496
399,545.3854840995566
400,0.029496
403,391.8859195521743
404,0.0047059658203125
407,391.8859195521743
408,0.0047059658203125
409,1872.4460996055493
423,42.58585147480562
424,46.032
425,720.5667493189711
500,1.967179836679026
501,1.967179836679026
502,0.12998674
530,1874.5428073034618
2,1, 1,15, 0, 7, 0.00,60.00,WinterDesignDay
7,-3.0
8,20.55201113747836
143,20.55201113747836
206,17.999421423568077
269,17.999421423568077
332,46.032
395,545.3854533843364
396,0.029496
399,545.3854533843364
400,0.029496
403,391.7420247156296
404,0.004702365234375
407,391.7420247156296
408,0.004702365234375
409,1872.2329795443725
423,42.58624371220282
424,46.032
425,720.484735086503
500,1.9671801480706768
501,1.9671801480706768
502,0.12998674
530,1874.254956199932
2,1, 1,15, 0, 8, 0.00,60.00,WinterDesignDay
7,-3.0
8,20.552011449586487
143,20.552011449586487
206,17.999602611707942
269,17.999602611707942
332,46.032
395,545.3854726394386
396,0.029496
399,545.3854726394386
400,0.029496
403,391.8896180369317
404,0.0047059658203125005
407,391.8896180369317
408,0.0047059658203125005
409,1872.4533381725623
423,42.58583815256524
424,46.032
425,720.5695349108785
500,1.9671798261026847
501,1.9671798261026847
502,0.12998674
530,1874.5501813527408
2,1, 1,15, 0, 9, 0.00,60.00,WinterDesignDay
7,-3.0
8,20.55200996082327
143,20.55200996082327
206,17.99949980358004
269,17.99949980358004
332,46.032
395,545.3855562058889
396,0.029496
399,545.3855562058889
400,0.029496
403,391.73801750894216
404,0.004702365234375
407,391.73801750894216
408,0.004702365234375
409,1872.224574096208
423,42.5862591820328
424,46.032
425,720.4815004478869
500,1.9671801603519572
501,1.9671801603519572
502,0.12998674
530,1874.2471474296622
2,1, 1,15, 0,10, 0.00,60.00,WinterDesignDay
7,-3.0
8,20.552014779815913
143,20.552014779815913
206,17.99965058577177
269,17.99965058577177
332,46.032
395,545.3854171195312
396,0.029496
399,545.3854171195312
400,0.029496
403,391.8888340425022
404,0.0047059658203125005
407,391.8888340425022
408,0.0047059658203125005
409,1872.4516612293119
423,42.58584123890001
424,46.032
425,720.5688895787928
500,1.967179828552881
501,1.967179828552881
502,0.12998674
530,1874.5485023240667
2,1, 1,15, 0,11, 0.00,60.00,WinterDesignDay
7,-3.0
8,20.552015327261678
143,20.552015327261678
206,17.999199971276134
269,17.999199971276134
332,46.032
395,545.3854495152074
396,0.029496
399,545.3854495152074
400,0.029496
403,391.74448928965444
404,0.004702365234375
407,391.74448928965444
408,0.004702365234375
409,1872.1992720894154
423,42.58630574918013
424,46.032
425,720.4717635669215
500,1.9671801973209089
501,1.9671801973209089
502,0.12998674
530,1874.2598776097234
2,1, 1,15, 0,12, 0.00,60.00,WinterDesignDay
7,-3.0
8,20.552012146925527
143,20.552012146925527
206,17.99942306387246
269,17.99942306387246
332,46.032
395,545.3854615397454
396,0.029496
399,545.3854615397454
400,0.029496
403,391.7412943680347
404,0.004702365234375
407,391.7412943680347
408,0.004702365234375
409,1872.2309114568811
423,42.58624751842008
424,46.032
425,720.4839392317751
500,1.9671801510923763
501,1.9671801510923763
502,0.12998674
530,1874.2535118155602
2,1, 1,15, 0,13, 0.00,60.00,WinterDesignDay
7,-3.0
8,20.552010731027494
143,20.552010731027494
206,17.99965649038786
269,17.99965649038786
332,46.032
395,545.385522098469
396,0.029496
399,545.385522098469
400,0.029496
403,391.88639411464
404,0.0047059658203125
407,391.88639411464
408,0.0047059658203125
409,1872.4471434039083
423,42.58584955374408
424,46.032
425,720.567151000168
500,1.9671798351539234
501,1.9671798351539234
502,0.12998674
530,1874.5438324262182
2,1, 1,15, 0,14, 0.00,60.00,WinterDesignDay
7,-3.0
8,20.552014253100563
143,20.552014253100563
206,17.99947853339503
269,17.99947853339503
332,46.032
395,545.3854383701065
396,0.029496
399,545.3854383701065
400,0.029496
403,391.7406944874985
404,0.004702365234375
407,391.7406944874985
408,0.004702365234375
409,1872.229553574943
423,42.586250017537594
424,46.032
425,720.4834166829155
500,1.96718015307639
501,1.96718015307639
502,0.12998674
530,1874.25226571521
2,1, 1,15, 0,15, 0.00,60.00,WinterDesignDay
7,-3.0
8,20.552015234554563
143,20.552015234554563
206,17.99969432229249
269,17.99969432229249
332,46.032
395,545.385437704573
396,0.029496
399,545.385437704573
400,0.029496
403,391.88582472101336
404,0.0047059658203125
407,391.88582472101336
408,0.0047059658203125
409,1872.4458161385137
423,42.58585199651329
424,46.032
425,720.5666402333634
500,1.967179837093202
501,1.967179837093202
502,0.12998674
530,1874.5425248511729
2,1, 1,15, 0,16, 0.00,60.00,WinterDesignDay
7,-3.0
8,20.55201333875987
143,20.55201333875987
206,17.999427053472463
269,17.999427053472463
332,46.032
395,545.3854062495053
396,0.029496
399,545.3854062495053
400,0.029496
403,391.74194284181567
404,0.004702365234375
407,391.74194284181567
408,0.004702365234375
409,1872.2327208316292
423,42.586244188351394
424,46.032
425,720.4846355270014
500,1.9671801484486844
501,1.9671801484486844
502,0.12998674
530,1874.254698182642
2,1, 1,15, 0,17, 0.00,60.00,WinterDesignDay
7,-3.0
8,20.5520136208679
143,20.5520136208679
206,17.999607560310228
269,17.999607560310228
332,46.032
395,545.3854259293123
396,0.029496
399,545.3854259293123
400,0.029496
403,391.88954676192753
404,0.0047059658203125005
407,391.88954676192753
408,0.0047059658203125005
409,1872.453101604961
423,42.58583858795673
424,46.032
425,720.5694438734129
500,1.9671798264483358
501,1.9671798264483358
502,0.12998674
530,1874.5499453824796
2,1, 1,15, 0,18, 0.00,60.00,WinterDesignDay
7,-3.0
8,20.55201207242603
143,20.55201207242603
206,17.999171061922077
269,17.999171061922077
332,46.032
395,545.38551064489
396,0.029496
399,545.38551064489
400,0.029496
403,391.7449231311024
404,0.004702365234375
407,391.7449231311024
408,0.004702365234375
409,1872.200269554581
423,42.58630391339265
424,46.032
425,720.472147417881
500,1.9671801958635036
501,1.9671801958635036
502,0.12998674
530,1874.260867551985
2,1, 1,15, 0,19, 0.00,60.00,WinterDesignDay
7,-3.0
8,20.55200779749416
143,20.55200779749416
206,17.99989948859139
269,17.99989948859139
332,46.032
395,545.3855500897095
396,0.029496
399,545.3855500897095
400,0.029496
403,391.8830740478574
404,0.0047059658203125005
407,391.8830740478574
408,0.0047059658203125005
409,1872.4783857257798
423,42.58579205372768
424,46.032
425,720.5791738713827
500,1.9671797895055176
501,1.9671797895055176
502,0.12998674
530,1874.5372482751336
2,1, 1,15, 0,20, 0.00,60.00,WinterDesignDay
7,-3.0
8,20.55201408711843
143,20.55201408711843
206,17.99923007144362
269,17.99923007144362
332,46.032
395,545.3854794211762
396,0.029496
399,545.3854794211762
400,0.029496
403,391.74409165894565
404,0.004702365234375
407,391.74409165894565
408,0.004702365234375
409,1872.1985934548618
423,42.58630699817494
424,46.032
425,720.4715024104084
500,1.9671801983124682
501,1.9671801983124682
502,0.12998674
530,1874.2591421602438
2,1, 1,15, 0,21, 0.00,60.00,WinterDesignDay
7,-3.0
8,20.55201246407021
143,20.55201246407021
206,17.99943834126765
269,17.99943834126765
332,46.032
395,545.385460467981
396,0.029496
399,545.385460467981
400,0.029496
403,391.74105749340475
404,0.004702365234375
407,391.74105749340475
408,0.004702365234375
409,1872.2304314564383
423,42.586248401838205
424,46.032
425,720.4837545149179
500,1.9671801517937093
501,1.9671801517937093
502,0.12998674
530,1874.2530359227717
2,1, 1,15, 0,22, 0.00,60.00,WinterDesignDay
7,-3.0
8,20.552011854787768
143,20.552011854787768
206,17.99966738032116
269,17.99966738032116
332,46.032
395,545.3855014324295
396,0.029496
399,545.3855014324295
400,0.029496
403,391.88623077284683
404,0.0047059658203125
407,391.88623077284683
408,0.0047059658203125
409,1872.446772083647
423,42.58585023714147
424,46.032
425,720.5670081063171
500,1.9671798356964625
501,1.9671798356964625
502,0.12998674
530,1874.5434644105526
2,1, 1,15, 0,23, 0.00,60.00,WinterDesignDay
7,-3.0
8,20.55200901732878
143,20.55200901732878
206,17.999406757301802
269,17.999406757301802
332,46.032
395,545.3854947482444
396,0.029496
399,545.3854947482444
400,0.029496
403,391.74224840347057
404,0.004702365234375
407,391.74224840347057
408,0.004702365234375
409,1872.233512620864
423,42.58624273110074
424,46.032
425,720.4849402284266
500,1.967180147291794
501,1.967180147291794
502,0.12998674
530,1874.2554863034297
2,1, 1,15, 0,24, 0.00,60.00,WinterDesignDay
7,-3.0
8,20.552012945402087
143,20.552012945402087
206,17.999711155377987
269,17.999711155377987
332,46.032
395,545.3855266118856
396,0.029496
399,545.3855266118856
400,0.029496
403,391.8851348999556
404,0.0047059658203125
407,391.8851348999556
408,0.0047059658203125
409,1872.4439043036846
423,42.58585551515492
424,46.032
425,720.5659045087898
500,1.9671798398865996
501,1.9671798398865996
502,0.12998674
530,1874.5413230236825
End of Data
 Number of Records Written=         528
