Program Version,EnergyPlus, Version 24.2.0-94a887817b, YMD=2026.05.15 11:04
1,5,Environment Title[],Latitude[deg],Longitude[deg],Time Zone[],Elevation[m]
2,8,Day of Simulation[],Month[],Day of Month[],DST Indicator[1=yes 0=no],Hour[],StartMinute[],EndMinute[],DayType
3,5,Cumulative Day of Simulation[],Month[],Day of Month[],DST Indicator[1=yes 0=no],DayType  ! When Daily Report Variables Requested
4,2,Cumulative Days of Simulation[],Month[]  ! When Monthly Report Variables Requested
5,1,Cumulative Days of Simulation[] ! When Run Period Report Variables Requested
6,1,Calendar Year of Simulation[] ! When Annual Report Variables Requested
7,1,Environment,Site Outdoor Air Drybulb Temperature [C] !Hourly
8,1,Z1,Zone Air Temperature [C] !Hourly
143,1,Z2,Zone Air Temperature [C] !Hourly
206,1,Z3,Zone Air Temperature [C] !Hourly
269,1,Z4,Zone Air Temperature [C] !Hourly
332,1,Z5,Zone Air Temperature [C] !Hourly
395,1,Z6,Zone Air Temperature [C] !Hourly
458,1,Z7,Zone Air Temperature [C] !Hourly
521,1,Z8,Zone Air Temperature [C] !Hourly
584,1,HOT WATER LOOP,Plant Supply Side Outlet Temperature [C] !Hourly
647,1,Z1 RADIATOR,Baseboard Total Heating Rate [W] !Hourly
648,1,Z1 RADIATOR,Baseboard Hot Water Mass Flow Rate [kg/s] !Hourly
651,1,Z2 RADIATOR,Baseboard Total Heating Rate [W] !Hourly
652,1,Z2 RADIATOR,Baseboard Hot Water Mass Flow Rate [kg/s] !Hourly
655,1,Z3 RADIATOR,Baseboard Total Heating Rate [W] !Hourly
656,1,Z3 RADIATOR,Baseboard Hot Water Mass Flow Rate [kg/s] !Hourly
659,1,Z4 RADIATOR,Baseboard Total Heating Rate [W] !Hourly
660,1,Z4 RADIATOR,Baseboard Hot Water Mass Flow Rate [kg/s] !Hourly
663,1,Z5 RADIATOR,Baseboard Total Heating Rate [W] !Hourly
664,1,Z5 RADIATOR,Baseboard Hot Water Mass Flow Rate [kg/s] !Hourly
667,1,Z6 RADIATOR,Baseboard Total Heating Rate [W] !Hourly
668,1,Z6 RADIATOR,Baseboard Hot Water Mass Flow Rate [kg/s] !Hourly
671,1,Z7 RADIATOR,Baseboard Total Heating Rate [W] !Hourly
672,1,Z7 RADIATOR,Baseboard Hot Water Mass Flow Rate [kg/s] !Hourly
675,1,Z8 RADIATOR,Baseboard Total Heating Rate [W] !Hourly
676,1,Z8 RADIATOR,Baseboard Hot Water Mass Flow Rate [kg/s] !Hourly
677,1,HEAT PUMP,Heat Pump Load Side Heat Transfer Rate [W] !Hourly
691,1,HEAT PUMP,Heat Pump Load Side Inlet Temperature [C] !Hourly
692,1,HEAT PUMP,Heat Pump Load Side Outlet Temperature [C] !Hourly
693,1,HEAT PUMP,Heat Pump Electricity Rate [W] !Hourly
768,1,SUPPLY PUMP,Pump Electricity Rate [W] !Hourly
769,1,SUPPLY PUMP,Pump Fluid Heat Gain Rate [W] !Hourly
770,1,SUPPLY PUMP,Pump Mass Flow Rate [kg/s] !Hourly
798,1,Baseboard Total Heating Rate All Zones,PythonPlugin:OutputVariable [W] !Hourly
End of Data Dictionary
1,WINTER DESIGN DAY IN (MID) UK,  53.35,  -2.28,   0.00,  69.00
2,1, 1,15, 0, 1, 0.00,60.00,WinterDesignDay
7,-3.0
8,20.999654812358248
143,20.999654812358248
206,20.999654812358248
269,20.999654812358248
332,20.990709631472434
395,20.990709631472434
458,20.990709631472434
521,20.990709631472434
584,41.74915805409436
647,253.72569900423483
648,0.014344734375000001
651,253.72569900423483
652,0.014344734375000001
655,253.72569900423483
656,0.014344734375000001
659,253.72569900423483
660,0.014344734375000001
663,444.3211288039086
664,0.029496
667,444.3211288039086
668,0.029496
671,444.3211288039086
672,0.029496
675,444.3211288039086
676,0.029496
677,2789.53735022452
691,37.943597890046824
692,43.07760950590908
693,998.3326926277742
768,2.64914623175809
769,2.64914623175809
770,0.1753629375
798,1014.9027960169393
2,1, 1,15, 0, 2, 0.00,60.00,WinterDesignDay
7,-3.0
8,21.000012815578263
143,21.000012815578263
206,21.000012815578263
269,21.000012815578263
332,20.99071733551039
395,20.99071733551039
458,20.99071733551039
521,20.99071733551039
584,41.74918895537124
647,253.79929328513558
648,0.0143735390625
651,253.79929328513558
652,0.0143735390625
655,253.79929328513558
656,0.0143735390625
659,253.79929328513558
660,0.0143735390625
663,444.32162354905694
664,0.029496
667,444.32162354905694
668,0.029496
671,444.32162354905694
672,0.029496
675,444.32162354905694
676,0.029496
677,2789.833199509665
691,37.945716220187094
692,43.08027233267219
693,998.5064165537431
768,2.6508888444850682
769,2.6508888444850682
770,0.17547815625
798,1015.1971731405423
2,1, 1,15, 0, 3, 0.00,60.00,WinterDesignDay
7,-3.0
8,20.999618000134088
143,20.999618000134088
206,20.999618000134088
269,20.999618000134088
332,20.990726960756348
395,20.990726960756348
458,20.990726960756348
521,20.990726960756348
584,41.74920891957737
647,253.72789156484035
648,0.014344734375000001
651,253.72789156484035
652,0.014344734375000001
655,253.72789156484035
656,0.014344734375000001
659,253.72789156484035
660,0.014344734375000001
663,444.3218166035763
664,0.029496
667,444.3218166035763
668,0.029496
671,444.3218166035763
672,0.029496
675,444.3218166035763
676,0.029496
677,2789.551064152656
691,37.94363005288996
692,43.07766690858862
693,998.3390610243991
768,2.6491462626384603
769,2.6491462626384603
770,0.1753629375
798,1014.9115662593614
2,1, 1,15, 0, 4, 0.00,60.00,WinterDesignDay
7,-3.0
8,20.99999679941258
143,20.99999679941258
206,20.99999679941258
269,20.99999679941258
332,20.990733194382337
395,20.990733194382337
458,20.990733194382337
521,20.990733194382337
584,41.749248351497044
647,253.80027894676874
648,0.0143735390625
651,253.80027894676874
652,0.0143735390625
655,253.80027894676874
656,0.0143735390625
659,253.80027894676874
660,0.0143735390625
663,444.322545119515
664,0.029496
667,444.322545119515
668,0.029496
671,444.322545119515
672,0.029496
675,444.322545119515
676,0.029496
677,2789.840965363139
691,37.9457650291392
692,43.080335434310484
693,998.5108014013863
768,2.650888891393785
769,2.650888891393785
770,0.17547815625
798,1015.201115787075
2,1, 1,15, 0, 5, 0.00,60.00,WinterDesignDay
7,-3.0
8,20.99961105688294
143,20.99961105688294
206,20.99961105688294
269,20.99961105688294
332,20.990741922723714
395,20.990741922723714
458,20.990741922723714
521,20.990741922723714
584,41.74927072191075
647,253.72875245168075
648,0.014344734375000001
651,253.72875245168075
652,0.014344734375000001
655,253.72875245168075
656,0.014344734375000001
659,253.72875245168075
660,0.014344734375000001
663,444.32281536832784
664,0.029496
667,444.32281536832784
668,0.029496
671,444.32281536832784
672,0.029496
675,444.32281536832784
676,0.029496
677,2789.5585614800293
691,37.94368162717324
692,43.07773228134849
693,998.3434071985002
768,2.649146312173964
769,2.649146312173964
770,0.1753629375
798,1014.915009806723
2,1, 1,15, 0, 6, 0.00,60.00,WinterDesignDay
7,-3.0
8,20.999996191584387
143,20.999996191584387
206,20.999996191584387
269,20.999996191584387
332,20.990748055265712
395,20.990748055265712
458,20.990748055265712
521,20.990748055265712
584,41.749311126797444
647,253.80107079720233
648,0.0143735390625
651,253.80107079720233
652,0.0143735390625
655,253.80107079720233
656,0.0143735390625
659,253.80107079720233
660,0.0143735390625
663,444.3235711012055
664,0.029496
667,444.3235711012055
668,0.029496
671,444.3235711012055
672,0.029496
675,444.3235711012055
676,0.029496
677,2789.848262661383
691,37.94581785592328
692,43.08040169142699
693,998.5150988426367
768,2.6508889421656328
769,2.6508889421656328
770,0.17547815625
798,1015.2042831888093
2,1, 1,15, 0, 7, 0.00,60.00,WinterDesignDay
7,-3.0
8,20.999614521333555
143,20.999614521333555
206,20.999614521333555
269,20.999614521333555
332,20.99075718342569
395,20.99075718342569
458,20.99075718342569
521,20.99075718342569
584,41.74933350850892
647,253.7294887439045
648,0.014344734375000001
651,253.7294887439045
652,0.014344734375000001
655,253.7294887439045
656,0.014344734375000001
659,253.7294887439045
660,0.014344734375000001
663,444.32383559297745
664,0.029496
667,444.32383559297745
668,0.029496
671,444.32383559297745
672,0.029496
675,444.32383559297745
676,0.029496
677,2789.5655841683933
691,37.94373483328767
692,43.077798412388844
693,998.3476028084322
768,2.6491463632770387
769,2.6491463632770387
770,0.1753629375
798,1014.917954975618
2,1, 1,15, 0, 8, 0.00,60.00,WinterDesignDay
7,-3.0
8,21.00000318858075
143,21.00000318858075
206,21.00000318858075
269,21.00000318858075
332,20.990763967377347
395,20.990763967377347
458,20.990763967377347
521,20.990763967377347
584,41.74937328449111
647,253.80175562243977
648,0.0143735390625
651,253.80175562243977
652,0.0143735390625
655,253.80175562243977
656,0.0143735390625
659,253.80175562243977
660,0.0143735390625
663,444.32456515810463
664,0.029496
667,444.32456515810463
668,0.029496
671,444.32456515810463
672,0.029496
675,444.32456515810463
676,0.029496
677,2789.8549572905067
691,37.94587088680351
692,43.08046704345564
693,998.5191575699629
768,2.650888993134119
769,2.650888993134119
770,0.17547815625
798,1015.2070224897591
2,1, 1,15, 0, 9, 0.00,60.00,WinterDesignDay
7,-3.0
8,20.99962404202178
143,20.99962404202178
206,20.99962404202178
269,20.99962404202178
332,20.990773838842784
395,20.990773838842784
458,20.990773838842784
521,20.990773838842784
584,41.749394493946404
647,253.7301253597418
648,0.014344734375000001
651,253.7301253597418
652,0.014344734375000001
655,253.7301253597418
656,0.014344734375000001
659,253.7301253597418
660,0.014344734375000001
663,444.32478916108454
664,0.029496
667,444.32478916108454
668,0.029496
671,444.32478916108454
672,0.029496
675,444.32478916108454
676,0.029496
677,2789.5719066392767
691,37.94378719352185
692,43.077862408831784
693,998.3514935287844
768,2.6491464135678084
769,2.6491464135678084
770,0.1753629375
798,1014.9205014389672
2,1, 1,15, 0,10, 0.00,60.00,WinterDesignDay
7,-3.0
8,21.0000149697631
143,21.0000149697631
206,21.0000149697631
269,21.0000149697631
332,20.99078135718442
395,20.99078135718442
458,20.99078135718442
521,20.99078135718442
584,41.74943269948259
647,253.80234516303992
648,0.0143735390625
651,253.80234516303992
652,0.0143735390625
655,253.80234516303992
656,0.0143735390625
659,253.80234516303992
660,0.0143735390625
663,444.32546937806194
664,0.029496
667,444.32546937806194
668,0.029496
671,444.32546937806194
672,0.029496
675,444.32546937806194
676,0.029496
677,2789.860882632845
691,37.945922223806875
692,43.08052928577145
693,998.52286185659
768,2.650889042474912
769,2.650889042474912
770,0.17547815625
798,1015.2093806521597
2,1, 1,15, 0,11, 0.00,60.00,WinterDesignDay
7,-3.0
8,20.999637475270067
143,20.999637475270067
206,20.999637475270067
269,20.999637475270067
332,20.990791896847558
395,20.990791896847558
458,20.990791896847558
521,20.990791896847558
584,41.74945198950055
647,253.73066929460933
648,0.014344734375000001
651,253.73066929460933
652,0.014344734375000001
655,253.73066929460933
656,0.014344734375000001
659,253.73066929460933
660,0.014344734375000001
663,444.3256377269093
664,0.029496
667,444.3256377269093
668,0.029496
671,444.3256377269093
672,0.029496
675,444.3256377269093
676,0.029496
677,2789.5774155039026
691,37.94383717382683
692,43.07792252794167
693,998.3549944434814
768,2.6491464615728146
769,2.6491464615728146
770,0.1753629375
798,1014.9226771784373
2,1, 1,15, 0,12, 0.00,60.00,WinterDesignDay
7,-3.0
8,21.000029881734427
143,21.000029881734427
206,21.000029881734427
269,21.000029881734427
332,20.990799982954393
395,20.990799982954393
458,20.990799982954393
521,20.990799982954393
584,41.749488014902944
647,253.80284420641937
648,0.0143735390625
651,253.80284420641937
652,0.0143735390625
655,253.80284420641937
656,0.0143735390625
659,253.80284420641937
660,0.0143735390625
663,444.32625866089853
664,0.029496
667,444.32625866089853
668,0.029496
671,444.32625866089853
672,0.029496
675,444.32625866089853
676,0.029496
677,2789.8659670968154
691,37.94597060764768
692,43.08058702732782
693,998.5261506855968
768,2.650889088977608
769,2.650889088977608
770,0.17547815625
798,1015.2113768256775
2,1, 1,15, 0,13, 0.00,60.00,WinterDesignDay
7,-3.0
8,20.999653453219477
143,20.999653453219477
206,20.999653453219477
269,20.999653453219477
332,20.990810973631945
395,20.990810973631945
458,20.990810973631945
521,20.990810973631945
584,41.74950489670772
647,253.73112449442874
648,0.014344734375000001
651,253.73112449442874
652,0.014344734375000001
655,253.73112449442874
656,0.014344734375000001
659,253.73112449442874
660,0.014344734375000001
663,444.3263652750834
664,0.029496
667,444.3263652750834
668,0.029496
671,444.3263652750834
672,0.029496
675,444.3263652750834
676,0.029496
677,2789.582070040426
691,37.943883731285524
692,43.0779776518548
693,998.3580625390404
768,2.6491465062903323
769,2.6491465062903323
770,0.1753629375
798,1014.924497977715
2,1, 1,15, 0,14, 0.00,60.00,WinterDesignDay
7,-3.0
8,20.999939900559635
143,20.999939900559635
206,20.999939900559635
269,20.999939900559635
332,20.99081729215804
395,20.99081729215804
458,20.99081729215804
521,20.99081729215804
584,41.74956230015799
647,253.8060480941108
648,0.0143735390625
651,253.8060480941108
652,0.0143735390625
655,253.8060480941108
656,0.0143735390625
659,253.8060480941108
660,0.0143735390625
663,444.3274226403285
664,0.029496
667,444.3274226403285
668,0.029496
671,444.3274226403285
672,0.029496
675,444.3274226403285
676,0.029496
677,2789.8859632058907
691,37.94601762914196
692,43.08067085071553
693,998.5354400457835
768,2.650889134171371
769,2.650889134171371
770,0.17547815625
798,1015.2241923764432
2,1, 1,15, 0,15, 0.00,60.00,WinterDesignDay
7,-3.0
8,20.999706565897245
143,20.999706565897245
206,20.999706565897245
269,20.999706565897245
332,20.99082652395345
395,20.99082652395345
458,20.99082652395345
521,20.99082652395345
584,41.74957188337118
647,253.7301962388579
648,0.014344734375000001
651,253.7301962388579
652,0.014344734375000001
655,253.7301962388579
656,0.014344734375000001
659,253.7301962388579
660,0.014344734375000001
663,444.32750207905065
664,0.029496
667,444.32750207905065
668,0.029496
671,444.32750207905065
672,0.029496
675,444.32750207905065
676,0.029496
677,2789.5806632260765
691,37.94395263110371
692,43.07804396249769
693,998.3592457811941
768,2.649146572478122
769,2.649146572478122
770,0.1753629375
798,1014.9207849554316
2,1, 1,15, 0,16, 0.00,60.00,WinterDesignDay
7,-3.0
8,20.99960639331171
143,20.99960639331171
206,20.99960639331171
269,20.99960639331171
332,20.99083535808572
395,20.99083535808572
458,20.99083535808572
521,20.99083535808572
584,41.74961814825477
647,253.73308572689058
648,0.014344734375000001
651,253.73308572689058
652,0.014344734375000001
655,253.73308572689058
656,0.014344734375000001
659,253.73308572689058
660,0.014344734375000001
663,444.3282489187453
664,0.029496
667,444.3282489187453
668,0.029496
671,444.3282489187453
672,0.029496
675,444.3282489187453
676,0.029496
677,2789.5978782699867
691,37.943975416766165
692,43.0780984316346
693,998.3667926190217
768,2.649146594350741
769,2.649146594350741
770,0.1753629375
798,1014.9323429075623
2,1, 1,15, 0,17, 0.00,60.00,WinterDesignDay
7,-3.0
8,21.00002238716579
143,21.00002238716579
206,21.00002238716579
269,21.00002238716579
332,20.990842237459056
395,20.990842237459056
458,20.990842237459056
521,20.990842237459056
584,41.74965843556702
647,253.80507528225908
648,0.0143735390625
651,253.80507528225908
652,0.0143735390625
655,253.80507528225908
656,0.0143735390625
659,253.80507528225908
660,0.0143735390625
663,444.328997580844
664,0.029496
667,444.328997580844
668,0.029496
671,444.328997580844
672,0.029496
675,444.328997580844
676,0.029496
677,2789.8859678912663
691,37.94611376093934
692,43.08076699113611
693,998.5378877828275
768,2.650889226561854
769,2.650889226561854
770,0.17547815625
798,1015.2203011290363
2,1, 1,15, 0,18, 0.00,60.00,WinterDesignDay
7,-3.0
8,20.999659044871983
143,20.999659044871983
206,20.999659044871983
269,20.999659044871983
332,20.990853605207732
395,20.990853605207732
458,20.990853605207732
521,20.990853605207732
584,41.749676241661724
647,253.7331851827006
648,0.014344734375000001
651,253.7331851827006
652,0.014344734375000001
655,253.7331851827006
656,0.014344734375000001
659,253.7331851827006
660,0.014344734375000001
663,444.32912479429245
664,0.029496
667,444.32912479429245
668,0.029496
671,444.32912479429245
672,0.029496
675,444.32912479429245
676,0.029496
677,2789.6013657456406
691,37.94402875265411
692,43.078158186056626
693,998.3695608587599
768,2.6491466455794823
769,2.6491466455794823
770,0.1753629375
798,1014.9327407308024
2,1, 1,15, 0,19, 0.00,60.00,WinterDesignDay
7,-3.0
8,20.999955928910303
143,20.999955928910303
206,20.999955928910303
269,20.999955928910303
332,20.990861263925662
395,20.990861263925662
458,20.990861263925662
521,20.990861263925662
584,41.749732520098604
647,253.80796286780875
648,0.0143735390625
651,253.80796286780875
652,0.0143735390625
655,253.80796286780875
656,0.0143735390625
659,253.80796286780875
660,0.0143735390625
663,444.3301342235031
664,0.029496
667,444.3301342235031
668,0.029496
671,444.3301342235031
672,0.029496
675,444.3301342235031
676,0.029496
677,2789.9044271531466
691,37.94616267664749
692,43.08084988024307
693,998.5466033633566
768,2.650889273577616
769,2.650889273577616
770,0.17547815625
798,1015.231851471235
2,1, 1,15, 0,20, 0.00,60.00,WinterDesignDay
7,-3.0
8,20.999730981993007
143,20.999730981993007
206,20.999730981993007
269,20.999730981993007
332,20.990872278941573
395,20.990872278941573
458,20.990872278941573
521,20.990872278941573
584,41.74973934693197
647,253.7319684795935
648,0.014344734375000001
651,253.7319684795935
652,0.014344734375000001
655,253.7319684795935
656,0.014344734375000001
659,253.7319684795935
660,0.014344734375000001
663,444.3301188446637
664,0.029496
667,444.3301188446637
668,0.029496
671,444.3301188446637
672,0.029496
675,444.3301188446637
676,0.029496
677,2789.598127766105
691,37.94409626930336
692,43.0782197433576
693,998.3699678411604
768,2.6491467104391826
769,2.6491467104391826
770,0.1753629375
798,1014.927873918374
2,1, 1,15, 0,21, 0.00,60.00,WinterDesignDay
7,-3.0
8,20.9996368753224
143,20.9996368753224
206,20.9996368753224
269,20.9996368753224
332,20.99088300289774
395,20.99088300289774
458,20.99088300289774
521,20.99088300289774
584,41.749781597364205
647,253.73473101217272
648,0.014344734375000001
651,253.73473101217272
652,0.014344734375000001
655,253.73473101217272
656,0.014344734375000001
659,253.73473101217272
660,0.014344734375000001
663,444.3307398904743
664,0.029496
667,444.3307398904743
668,0.029496
671,444.3307398904743
672,0.029496
675,444.3307398904743
676,0.029496
677,2789.6142959345207
691,37.94411646870134
692,43.0782696995052
693,998.3770252434952
768,2.64914672982792
769,2.64914672982792
770,0.1753629375
798,1014.9389240486909
2,1, 1,15, 0,22, 0.00,60.00,WinterDesignDay
7,-3.0
8,20.99995034390741
143,20.99995034390741
206,20.99995034390741
269,20.99995034390741
332,20.990889567926978
395,20.990889567926978
458,20.990889567926978
521,20.990889567926978
584,41.74984085550515
647,253.8093917831746
648,0.0143735390625
651,253.8093917831746
652,0.0143735390625
655,253.8093917831746
656,0.0143735390625
659,253.8093917831746
660,0.0143735390625
663,444.331842532961
664,0.029496
667,444.331842532961
668,0.029496
671,444.331842532961
672,0.029496
675,444.331842532961
676,0.029496
677,2789.9170589635573
691,37.94625379070903
692,43.08096424255451
693,998.5540340626903
768,2.6508893611478586
769,2.6508893611478586
770,0.17547815625
798,1015.2375671326984
2,1, 1,15, 0,23, 0.00,60.00,WinterDesignDay
7,-3.0
8,20.999735280191146
143,20.999735280191146
206,20.999735280191146
269,20.999735280191146
332,20.99090051888286
395,20.99090051888286
458,20.99090051888286
521,20.99090051888286
584,41.749848348005365
647,253.73327319032975
648,0.014344734375000001
651,253.73327319032975
652,0.014344734375000001
655,253.73327319032975
656,0.014344734375000001
659,253.73327319032975
660,0.014344734375000001
663,444.331848885853
664,0.029496
667,444.331848885853
668,0.029496
671,444.331848885853
672,0.029496
675,444.331848885853
676,0.029496
677,2789.6102776668813
691,37.94418869526632
692,43.07833453063855
693,998.3772362610608
768,2.6491467992118416
769,2.6491467992118416
770,0.1753629375
798,1014.933092761319
2,1, 1,15, 0,24, 0.00,60.00,WinterDesignDay
7,-3.0
8,20.999647496695008
143,20.999647496695008
206,20.999647496695008
269,20.999647496695008
332,20.990911879232623
395,20.990911879232623
458,20.990911879232623
521,20.990911879232623
584,41.74988980182586
647,253.735943196552
648,0.014344734375000001
651,253.735943196552
652,0.014344734375000001
655,253.735943196552
656,0.014344734375000001
659,253.735943196552
660,0.014344734375000001
663,444.3324427979741
664,0.029496
667,444.3324427979741
668,0.029496
671,444.3324427979741
672,0.029496
675,444.3324427979741
676,0.029496
677,2789.6259280820454
691,37.94420880440077
692,43.07838344362223
693,998.384081850962
768,2.6491468185140485
769,2.6491468185140485
770,0.1753629375
798,1014.943772786208
End of Data
 Number of Records Written=         816
