Program Version,EnergyPlus, Version 24.2.0-94a887817b, YMD=2026.04.20 12:09
1,5,Environment Title[],Latitude[deg],Longitude[deg],Time Zone[],Elevation[m]
2,8,Day of Simulation[],Month[],Day of Month[],DST Indicator[1=yes 0=no],Hour[],StartMinute[],EndMinute[],DayType
3,5,Cumulative Day of Simulation[],Month[],Day of Month[],DST Indicator[1=yes 0=no],DayType  ! When Daily Report Variables Requested
4,2,Cumulative Days of Simulation[],Month[]  ! When Monthly Report Variables Requested
5,1,Cumulative Days of Simulation[] ! When Run Period Report Variables Requested
6,1,Calendar Year of Simulation[] ! When Annual Report Variables Requested
7,1,Environment,Site Outdoor Air Drybulb Temperature [C] !Hourly
8,1,Z1,Zone Air Temperature [C] !Hourly
143,1,Z2,Zone Air Temperature [C] !Hourly
206,1,Z3,Zone Air Temperature [C] !Hourly
269,1,Z4,Zone Air Temperature [C] !Hourly
332,1,Z5,Zone Air Temperature [C] !Hourly
395,1,Z6,Zone Air Temperature [C] !Hourly
458,1,Z7,Zone Air Temperature [C] !Hourly
521,1,Z8,Zone Air Temperature [C] !Hourly
584,1,HOT WATER LOOP,Plant Supply Side Outlet Temperature [C] !Hourly
647,1,Z1 RADIATOR,Baseboard Total Heating Rate [W] !Hourly
648,1,Z1 RADIATOR,Baseboard Hot Water Mass Flow Rate [kg/s] !Hourly
651,1,Z2 RADIATOR,Baseboard Total Heating Rate [W] !Hourly
652,1,Z2 RADIATOR,Baseboard Hot Water Mass Flow Rate [kg/s] !Hourly
655,1,Z3 RADIATOR,Baseboard Total Heating Rate [W] !Hourly
656,1,Z3 RADIATOR,Baseboard Hot Water Mass Flow Rate [kg/s] !Hourly
659,1,Z4 RADIATOR,Baseboard Total Heating Rate [W] !Hourly
660,1,Z4 RADIATOR,Baseboard Hot Water Mass Flow Rate [kg/s] !Hourly
663,1,Z5 RADIATOR,Baseboard Total Heating Rate [W] !Hourly
664,1,Z5 RADIATOR,Baseboard Hot Water Mass Flow Rate [kg/s] !Hourly
667,1,Z6 RADIATOR,Baseboard Total Heating Rate [W] !Hourly
668,1,Z6 RADIATOR,Baseboard Hot Water Mass Flow Rate [kg/s] !Hourly
671,1,Z7 RADIATOR,Baseboard Total Heating Rate [W] !Hourly
672,1,Z7 RADIATOR,Baseboard Hot Water Mass Flow Rate [kg/s] !Hourly
675,1,Z8 RADIATOR,Baseboard Total Heating Rate [W] !Hourly
676,1,Z8 RADIATOR,Baseboard Hot Water Mass Flow Rate [kg/s] !Hourly
677,1,HEAT PUMP,Heat Pump Load Side Heat Transfer Rate [W] !Hourly
691,1,HEAT PUMP,Heat Pump Load Side Inlet Temperature [C] !Hourly
692,1,HEAT PUMP,Heat Pump Load Side Outlet Temperature [C] !Hourly
693,1,HEAT PUMP,Heat Pump Electricity Rate [W] !Hourly
768,1,SUPPLY PUMP,Pump Electricity Rate [W] !Hourly
769,1,SUPPLY PUMP,Pump Fluid Heat Gain Rate [W] !Hourly
770,1,SUPPLY PUMP,Pump Mass Flow Rate [kg/s] !Hourly
798,1,Baseboard Total Heating Rate All Zones,PythonPlugin:OutputVariable [W] !Hourly
End of Data Dictionary
1,WINTER DESIGN DAY IN (MID) UK,  53.35,  -2.28,   0.00,  69.00
2,1, 1,15, 0, 1, 0.00,60.00,WinterDesignDay
7,-3.0
8,20.999967813949354
143,20.999967813949354
206,20.999967813949354
269,20.999967813949354
332,21.00021282077637
395,21.00021282077637
458,21.00021282077637
521,21.00021282077637
584,45.86658602785138
647,498.393189851323
648,0.01831978125
651,498.393189851323
652,0.01831978125
655,498.393189851323
656,0.01831978125
659,498.393189851323
660,0.01831978125
663,194.8311759235483
664,0.0019641196289062503
667,194.8311759235483
668,0.0019641196289062503
671,194.8311759235483
672,0.0019641196289062503
675,194.8311759235483
676,0.0019641196289062503
677,2770.8170596511136
691,40.76702822177534
692,45.86658602785138
693,1062.1040050622812
768,1.965736958571233
769,1.965736958571233
770,0.12998674
798,1993.572759405292
2,1, 1,15, 0, 2, 0.00,60.00,WinterDesignDay
7,-3.0
8,20.999981499638903
143,20.999981499638903
206,20.999981499638903
269,20.999981499638903
332,21.00022382847811
395,21.00022382847811
458,21.00022382847811
521,21.00022382847811
584,45.86659090176059
647,498.39300994194207
648,0.01831978125
651,498.39300994194207
652,0.01831978125
655,498.39300994194207
656,0.01831978125
659,498.39300994194207
660,0.01831978125
663,194.83112710779523
664,0.0019641196289062503
667,194.83112710779523
668,0.0019641196289062503
671,194.83112710779523
672,0.0019641196289062503
675,194.83112710779523
676,0.0019641196289062503
677,2770.816051339984
691,40.76703495143352
692,45.86659090176059
693,1062.1037417055659
768,1.9657369639059765
769,1.9657369639059765
770,0.12998674
798,1993.5720397677683
2,1, 1,15, 0, 3, 0.00,60.00,WinterDesignDay
7,-3.0
8,20.99999405248925
143,20.99999405248925
206,20.99999405248925
269,20.99999405248925
332,21.000233874113576
395,21.000233874113576
458,21.000233874113576
521,21.000233874113576
584,45.86659360866636
647,498.39280910589264
648,0.01831978125
651,498.39280910589264
652,0.01831978125
655,498.39280910589264
656,0.01831978125
659,498.39280910589264
660,0.01831978125
663,194.83106856170335
664,0.0019641196289062503
667,194.83106856170335
668,0.0019641196289062503
671,194.83106856170335
672,0.0019641196289062503
675,194.83106856170335
676,0.0019641196289062503
677,2770.814930665213
691,40.76703972088822
692,45.86659360866636
693,1062.1033805229922
768,1.9657369676868253
769,1.9657369676868253
770,0.12998674
798,1993.5712364235706
2,1, 1,15, 0, 4, 0.00,60.00,WinterDesignDay
7,-3.0
8,21.00000549703785
143,21.00000549703785
206,21.00000549703785
269,21.00000549703785
332,21.000242966021318
395,21.000242966021318
458,21.000242966021318
521,21.000242966021318
584,45.86659432934
647,498.3925906247829
648,0.01831978125
651,498.3925906247829
652,0.01831978125
655,498.3925906247829
656,0.01831978125
659,498.3925906247829
660,0.01831978125
663,194.83100187961162
664,0.0019641196289062503
667,194.83100187961162
668,0.0019641196289062503
671,194.83100187961162
672,0.0019641196289062503
675,194.83100187961162
676,0.0019641196289062503
677,2770.813713856268
691,40.767042681041204
692,45.86659432934
693,1062.102932303331
768,1.9657369700334018
769,1.9657369700334018
770,0.12998674
798,1993.5703624991315
2,1, 1,15, 0, 5, 0.00,60.00,WinterDesignDay
7,-3.0
8,21.000015862561398
143,21.000015862561398
206,21.000015862561398
269,21.000015862561398
332,21.000251119744476
395,21.000251119744476
458,21.000251119744476
521,21.000251119744476
584,45.866593240533376
647,498.39235747892553
648,0.01831978125
651,498.39235747892553
652,0.01831978125
655,498.39235747892553
656,0.01831978125
659,498.39235747892553
660,0.01831978125
663,194.83092833542003
664,0.0019641196289062503
667,194.83092833542003
668,0.0019641196289062503
671,194.83092833542003
672,0.0019641196289062503
675,194.83092833542003
676,0.0019641196289062503
677,2770.8124176355113
691,40.7670439778676
692,45.866593240533376
693,1062.1024079227284
768,1.965736971061424
769,1.965736971061424
770,0.12998674
798,1993.5694299157021
2,1, 1,15, 0, 6, 0.00,60.00,WinterDesignDay
7,-3.0
8,21.00002518239898
143,21.00002518239898
206,21.00002518239898
269,21.00002518239898
332,21.000258356354042
395,21.000258356354042
458,21.000258356354042
521,21.000258356354042
584,45.866590514229955
647,498.3921124717516
648,0.01831978125
651,498.3921124717516
652,0.01831978125
655,498.3921124717516
656,0.01831978125
659,498.3921124717516
660,0.01831978125
663,194.8308491242826
664,0.0019641196289062503
667,194.8308491242826
668,0.0019641196289062503
671,194.8308491242826
672,0.0019641196289062503
675,194.8308491242826
676,0.0019641196289062503
677,2770.8110578240394
691,40.7670437542329
692,45.866590514229955
693,1062.1018177913704
768,1.9657369708841446
769,1.9657369708841446
770,0.12998674
798,1993.5684498870064
2,1, 1,15, 0, 7, 0.00,60.00,WinterDesignDay
7,-3.0
8,21.00003349295003
143,21.00003349295003
206,21.00003349295003
269,21.00003349295003
332,21.00026470021462
395,21.00026470021462
458,21.00026470021462
521,21.00026470021462
584,45.866586317014125
647,498.39185811952086
648,0.01831978125
651,498.39185811952086
652,0.01831978125
655,498.39185811952086
656,0.01831978125
659,498.39185811952086
660,0.01831978125
663,194.830765151301
664,0.0019641196289062503
667,194.830765151301
668,0.0019641196289062503
671,194.830765151301
672,0.0019641196289062503
675,194.830765151301
676,0.0019641196289062503
677,2770.809651374762
691,40.76704214552048
692,45.866586317014125
693,1062.1011726168604
768,1.9657369696088847
769,1.9657369696088847
770,0.12998674
798,1993.5674324780834
2,1, 1,15, 0, 8, 0.00,60.00,WinterDesignDay
7,-3.0
8,21.000040834701718
143,21.000040834701718
206,21.000040834701718
269,21.000040834701718
332,21.000270183673756
395,21.000270183673756
458,21.000270183673756
521,21.000270183673756
584,45.86658080956984
647,498.3915970852464
648,0.01831978125
651,498.3915970852464
652,0.01831978125
655,498.3915970852464
656,0.01831978125
659,498.3915970852464
660,0.01831978125
663,194.83067787757298
664,0.0019641196289062503
667,194.83067787757298
668,0.0019641196289062503
671,194.83067787757298
672,0.0019641196289062503
675,194.83067787757298
676,0.0019641196289062503
677,2770.808207783898
691,40.767039294936936
692,45.86658080956984
693,1062.1004800994222
768,1.9657369673491667
769,1.9657369673491667
770,0.12998674
798,1993.5663883409857
2,1, 1,15, 0, 9, 0.00,60.00,WinterDesignDay
7,-3.0
8,21.000047249881536
143,21.000047249881536
206,21.000047249881536
269,21.000047249881536
332,21.000274840949885
395,21.000274840949885
458,21.000274840949885
521,21.000274840949885
584,45.86657414606461
647,498.3913315097253
648,0.01831978125
651,498.3913315097253
652,0.01831978125
655,498.3913315097253
656,0.01831978125
659,498.3913315097253
660,0.01831978125
663,194.83058802428155
664,0.0019641196289062503
667,194.83058802428155
668,0.0019641196289062503
671,194.83058802428155
672,0.0019641196289062503
675,194.83058802428155
676,0.0019641196289062503
677,2770.8067414239054
691,40.767035330197935
692,45.86657414606461
693,1062.099749643762
768,1.9657369642062346
769,1.9657369642062346
770,0.12998674
798,1993.5653260389013
2,1, 1,15, 0,10, 0.00,60.00,WinterDesignDay
7,-3.0
8,21.00005278267767
143,21.00005278267767
206,21.00005278267767
269,21.00005278267767
332,21.000278708690168
395,21.000278708690168
458,21.000278708690168
521,21.000278708690168
584,45.8665664738668
647,498.39106347954856
648,0.01831978125
651,498.39106347954856
652,0.01831978125
655,498.39106347954856
656,0.01831978125
659,498.39106347954856
660,0.01831978125
663,194.83049647041253
664,0.0019641196289062503
667,194.83049647041253
668,0.0019641196289062503
671,194.83049647041253
672,0.0019641196289062503
675,194.83049647041253
676,0.0019641196289062503
677,2770.8052640536775
691,40.7670303770302
692,45.8665664738668
693,1062.098989480955
768,1.9657369602797534
769,1.9657369602797534
770,0.12998674
798,1993.5642539181943
2,1, 1,15, 0,11, 0.00,60.00,WinterDesignDay
7,-3.0
8,21.000057478151604
143,21.000057478151604
206,21.000057478151604
269,21.000057478151604
332,21.000281823967605
395,21.000281823967605
458,21.000281823967605
521,21.000281823967605
584,45.86655793326506
647,498.39079480209995
648,0.01831978125
651,498.39079480209995
652,0.01831978125
655,498.39079480209995
656,0.01831978125
659,498.39079480209995
660,0.01831978125
663,194.8304038127417
664,0.0019641196289062503
667,194.8304038127417
668,0.0019641196289062503
671,194.8304038127417
672,0.0019641196289062503
675,194.8304038127417
676,0.0019641196289062503
677,2770.8037886288075
691,40.76702455187818
692,45.86655793326506
693,1062.0982081218922
768,1.965736955662032
769,1.965736955662032
770,0.12998674
798,1993.5631792083998
2,1, 1,15, 0,12, 0.00,60.00,WinterDesignDay
7,-3.0
8,21.00006138426708
143,21.00006138426708
206,21.00006138426708
269,21.00006138426708
332,21.000284231441597
395,21.000284231441597
458,21.000284231441597
521,21.000284231441597
584,45.86654865725653
647,498.39052742641456
648,0.01831978125
651,498.39052742641456
652,0.01831978125
655,498.39052742641456
656,0.01831978125
659,498.39052742641456
660,0.01831978125
663,194.8303111903955
664,0.0019641196289062503
667,194.8303111903955
668,0.0019641196289062503
671,194.8303111903955
672,0.0019641196289062503
675,194.8303111903955
676,0.0019641196289062503
677,2770.8023200237253
691,40.76701797876787
692,45.86654865725653
693,1062.0974107955617
768,1.9657369504513884
769,1.9657369504513884
770,0.12998674
798,1993.5621097056583
2,1, 1,15, 0,13, 0.00,60.00,WinterDesignDay
7,-3.0
8,21.000064548192544
143,21.000064548192544
206,21.000064548192544
269,21.000064548192544
332,21.000285972826852
395,21.000285972826852
458,21.000285972826852
521,21.000285972826852
584,45.86653877120777
647,498.3902628119955
648,0.01831978125
651,498.3902628119955
652,0.01831978125
655,498.3902628119955
656,0.01831978125
659,498.3902628119955
660,0.01831978125
663,194.8302190405811
664,0.0019641196289062503
667,194.8302190405811
668,0.0019641196289062503
671,194.8302190405811
672,0.0019641196289062503
675,194.8302190405811
676,0.0019641196289062503
677,2770.800869136092
691,40.76701076300921
692,45.86653877120777
693,1062.0966048469465
768,1.9657369447313036
769,1.9657369447313036
770,0.12998674
798,1993.561051247982
2,1, 1,15, 0,14, 0.00,60.00,WinterDesignDay
7,-3.0
8,21.00006701760268
143,21.00006701760268
206,21.00006701760268
269,21.00006701760268
332,21.00028709104753
395,21.00028709104753
458,21.00028709104753
521,21.00028709104753
584,45.866528392909416
647,498.3900023164619
648,0.01831978125
651,498.3900023164619
652,0.01831978125
655,498.3900023164619
656,0.01831978125
659,498.3900023164619
660,0.01831978125
663,194.8301278472815
664,0.0019641196289062503
667,194.8301278472815
668,0.0019641196289062503
671,194.8301278472815
672,0.0019641196289062503
675,194.8301278472815
676,0.0019641196289062503
677,2770.7994446713956
691,40.767003006370786
692,45.866528392909416
693,1062.0957965892953
768,1.965736938582452
769,1.965736938582452
770,0.12998674
798,1993.5600092658476
2,1, 1,15, 0,15, 0.00,60.00,WinterDesignDay
7,-3.0
8,21.00006884019994
143,21.00006884019994
206,21.00006884019994
269,21.00006884019994
332,21.000287629110222
395,21.000287629110222
458,21.000287629110222
521,21.000287629110222
584,45.86651763253508
647,498.38974726218635
648,0.01831978125
651,498.38974726218635
652,0.01831978125
655,498.38974726218635
656,0.01831978125
659,498.38974726218635
660,0.01831978125
663,194.83003825506552
664,0.0019641196289062503
667,194.83003825506552
668,0.0019641196289062503
671,194.83003825506552
672,0.0019641196289062503
675,194.83003825506552
676,0.0019641196289062503
677,2770.79805287628
691,40.766994807529564
692,45.86651763253508
693,1062.0949912008653
768,1.965736932083057
769,1.965736932083057
770,0.12998674
798,1993.5589890487454
2,1, 1,15, 0,16, 0.00,60.00,WinterDesignDay
7,-3.0
8,21.000070064110737
143,21.000070064110737
206,21.000070064110737
269,21.000070064110737
332,21.000287633735343
395,21.000287633735343
458,21.000287633735343
521,21.000287633735343
584,45.866506592608374
647,498.38949879261224
648,0.01831978125
651,498.38949879261224
652,0.01831978125
655,498.38949879261224
656,0.01831978125
659,498.38949879261224
660,0.01831978125
663,194.82995080309718
664,0.0019641196289062503
667,194.82995080309718
668,0.0019641196289062503
671,194.82995080309718
672,0.0019641196289062503
675,194.82995080309718
676,0.0019641196289062503
677,2770.796697998082
691,40.76698626119213
692,45.866506592608374
693,1062.0941929002388
768,1.9657369253081942
769,1.9657369253081942
770,0.12998674
798,1993.557995170449
2,1, 1,15, 0,17, 0.00,60.00,WinterDesignDay
7,-3.0
8,21.00007073540234
143,21.00007073540234
206,21.00007073540234
269,21.00007073540234
332,21.000287145804677
395,21.000287145804677
458,21.000287145804677
521,21.000287145804677
584,45.866495368002575
647,498.3892577248495
648,0.01831978125
651,498.3892577248495
652,0.01831978125
655,498.3892577248495
656,0.01831978125
659,498.3892577248495
660,0.01831978125
663,194.82986559798218
664,0.0019641196289062503
667,194.82986559798218
668,0.0019641196289062503
671,194.82986559798218
672,0.0019641196289062503
675,194.82986559798218
676,0.0019641196289062503
677,2770.7953888684942
691,40.766977445977446
692,45.866495368002575
693,1062.09340746995
768,1.9657369183201863
769,1.9657369183201863
770,0.12998674
798,1993.557030899398
2,1, 1,15, 0,18, 0.00,60.00,WinterDesignDay
7,-3.0
8,21.00007090130942
143,21.00007090130942
206,21.00007090130942
269,21.00007090130942
332,21.000286212058022
395,21.000286212058022
458,21.000286212058022
521,21.000286212058022
584,45.866484046173895
647,498.3890250951944
648,0.01831978125
651,498.3890250951944
652,0.01831978125
655,498.3890250951944
656,0.01831978125
659,498.3890250951944
660,0.01831978125
663,194.82978339127203
664,0.0019641196289062503
667,194.82978339127203
668,0.0019641196289062503
671,194.82978339127203
672,0.0019641196289062503
675,194.82978339127203
676,0.0019641196289062503
677,2770.7941253225795
691,40.7669684496453
692,45.866484046173895
693,1062.0926370565505
768,1.9657369111886034
769,1.9657369111886034
770,0.12998674
798,1993.5561003807777
2,1, 1,15, 0,19, 0.00,60.00,WinterDesignDay
7,-3.0
8,21.0000706065897
143,21.0000706065897
206,21.0000706065897
269,21.0000706065897
332,21.00028487427538
395,21.00028487427538
458,21.00028487427538
521,21.00028487427538
584,45.86647270709821
647,498.3888014959401
648,0.01831978125
651,498.3888014959401
652,0.01831978125
655,498.3888014959401
656,0.01831978125
659,498.3888014959401
660,0.01831978125
663,194.82970426520765
664,0.0019641196289062503
667,194.82970426520765
668,0.0019641196289062503
671,194.82970426520765
672,0.0019641196289062503
675,194.82970426520765
676,0.0019641196289062503
677,2770.792913288453
691,40.76695934126112
692,45.86647270709821
693,1062.0918859531491
768,1.9657369039681944
769,1.9657369039681944
770,0.12998674
798,1993.5552059837603
2,1, 1,15, 0,20, 0.00,60.00,WinterDesignDay
7,-3.0
8,21.000069894533105
143,21.000069894533105
206,21.000069894533105
269,21.000069894533105
332,21.00028317189829
395,21.00028317189829
458,21.00028317189829
521,21.00028317189829
584,45.86646142360132
647,498.3885873763225
648,0.01831978125
651,498.3885873763225
652,0.01831978125
655,498.3885873763225
656,0.01831978125
659,498.3885873763225
660,0.01831978125
663,194.82962820715005
664,0.0019641196289062503
667,194.82962820715005
668,0.0019641196289062503
671,194.82962820715005
672,0.0019641196289062503
675,194.82962820715005
676,0.0019641196289062503
677,2770.791758589856
691,40.766950182932405
692,45.86646142360132
693,1062.0911582321762
768,1.9657368967081932
769,1.9657368967081932
770,0.12998674
798,1993.55434950529
2,1, 1,15, 0,21, 0.00,60.00,WinterDesignDay
7,-3.0
8,21.00006880844605
143,21.00006880844605
206,21.00006880844605
269,21.00006880844605
332,21.000281147849197
395,21.000281147849197
458,21.000281147849197
521,21.000281147849197
584,45.866450261592306
647,498.388383482321
648,0.01831978125
651,498.388383482321
652,0.01831978125
655,498.388383482321
656,0.01831978125
659,498.388383482321
660,0.01831978125
663,194.82955595579585
664,0.0019641196289062503
667,194.82955595579585
668,0.0019641196289062503
671,194.82955595579585
672,0.0019641196289062503
675,194.82955595579585
676,0.0019641196289062503
677,2770.790658399264
691,40.76694104577215
692,45.866450261592306
693,1062.0904544751156
768,1.965736889464973
769,1.965736889464973
770,0.12998674
798,1993.553533929284
2,1, 1,15, 0,22, 0.00,60.00,WinterDesignDay
7,-3.0
8,21.000067388826178
143,21.000067388826178
206,21.000067388826178
269,21.000067388826178
332,21.00027884029044
395,21.00027884029044
458,21.00027884029044
521,21.00027884029044
584,45.866439280095975
647,498.38818995926977
648,0.01831978125
651,498.38818995926977
652,0.01831978125
655,498.38818995926977
656,0.01831978125
659,498.38818995926977
660,0.01831978125
663,194.82948724987585
664,0.0019641196289062503
667,194.82948724987585
668,0.0019641196289062503
671,194.82948724987585
672,0.0019641196289062503
675,194.82948724987585
676,0.0019641196289062503
677,2770.7896182185696
691,40.766931978679224
692,45.866439280095975
693,1062.0897782823058
768,1.9657368822772963
769,1.9657368822772963
770,0.12998674
798,1993.552759837079
2,1, 1,15, 0,23, 0.00,60.00,WinterDesignDay
7,-3.0
8,21.000065675058142
143,21.000065675058142
206,21.000065675058142
269,21.000065675058142
332,21.00027628638161
395,21.00027628638161
458,21.00027628638161
521,21.00027628638161
584,45.86642853171203
647,498.38800715062575
648,0.01831978125
651,498.38800715062575
652,0.01831978125
655,498.38800715062575
656,0.01831978125
659,498.38800715062575
660,0.01831978125
663,194.8294223587357
664,0.0019641196289062503
667,194.8294223587357
668,0.0019641196289062503
671,194.8294223587357
672,0.0019641196289062503
675,194.8294223587357
676,0.0019641196289062503
677,2770.788638195636
691,40.76692303398115
692,45.86642853171203
693,1062.0891310394468
768,1.9657368751866446
769,1.9657368751866446
770,0.12998674
798,1993.552028602503
2,1, 1,15, 0,24, 0.00,60.00,WinterDesignDay
7,-3.0
8,21.00006370532158
143,21.00006370532158
206,21.00006370532158
269,21.00006370532158
332,21.000273524346063
395,21.000273524346063
458,21.000273524346063
521,21.000273524346063
584,45.866418062705606
647,498.3878352817323
648,0.01831978125
651,498.3878352817323
652,0.01831978125
655,498.3878352817323
656,0.01831978125
659,498.3878352817323
660,0.01831978125
663,194.82936147213354
664,0.0019641196289062503
667,194.82936147213354
668,0.0019641196289062503
671,194.82936147213354
672,0.0019641196289062503
675,194.82936147213354
676,0.0019641196289062503
677,2770.7877174722116
691,40.766914259522665
692,45.866418062705606
693,1062.0885135865196
768,1.965736868230946
769,1.965736868230946
770,0.12998674
798,1993.5513411269292
End of Data
 Number of Records Written=         816
