Program Version,EnergyPlus, Version 24.2.0-94a887817b, YMD=2026.04.28 12:47
1,5,Environment Title[],Latitude[deg],Longitude[deg],Time Zone[],Elevation[m]
2,8,Day of Simulation[],Month[],Day of Month[],DST Indicator[1=yes 0=no],Hour[],StartMinute[],EndMinute[],DayType
3,5,Cumulative Day of Simulation[],Month[],Day of Month[],DST Indicator[1=yes 0=no],DayType  ! When Daily Report Variables Requested
4,2,Cumulative Days of Simulation[],Month[]  ! When Monthly Report Variables Requested
5,1,Cumulative Days of Simulation[] ! When Run Period Report Variables Requested
6,1,Calendar Year of Simulation[] ! When Annual Report Variables Requested
7,1,Environment,Site Outdoor Air Drybulb Temperature [C] !Hourly
8,1,Z1,Zone Air Temperature [C] !Hourly
143,1,Z2,Zone Air Temperature [C] !Hourly
206,1,Z3,Zone Air Temperature [C] !Hourly
269,1,Z4,Zone Air Temperature [C] !Hourly
332,1,Z5,Zone Air Temperature [C] !Hourly
395,1,Z6,Zone Air Temperature [C] !Hourly
458,1,Z7,Zone Air Temperature [C] !Hourly
521,1,Z8,Zone Air Temperature [C] !Hourly
584,1,HOT WATER LOOP,Plant Supply Side Outlet Temperature [C] !Hourly
647,1,Z1 RADIATOR,Baseboard Total Heating Rate [W] !Hourly
648,1,Z1 RADIATOR,Baseboard Hot Water Mass Flow Rate [kg/s] !Hourly
651,1,Z2 RADIATOR,Baseboard Total Heating Rate [W] !Hourly
652,1,Z2 RADIATOR,Baseboard Hot Water Mass Flow Rate [kg/s] !Hourly
655,1,Z3 RADIATOR,Baseboard Total Heating Rate [W] !Hourly
656,1,Z3 RADIATOR,Baseboard Hot Water Mass Flow Rate [kg/s] !Hourly
659,1,Z4 RADIATOR,Baseboard Total Heating Rate [W] !Hourly
660,1,Z4 RADIATOR,Baseboard Hot Water Mass Flow Rate [kg/s] !Hourly
663,1,Z5 RADIATOR,Baseboard Total Heating Rate [W] !Hourly
664,1,Z5 RADIATOR,Baseboard Hot Water Mass Flow Rate [kg/s] !Hourly
667,1,Z6 RADIATOR,Baseboard Total Heating Rate [W] !Hourly
668,1,Z6 RADIATOR,Baseboard Hot Water Mass Flow Rate [kg/s] !Hourly
671,1,Z7 RADIATOR,Baseboard Total Heating Rate [W] !Hourly
672,1,Z7 RADIATOR,Baseboard Hot Water Mass Flow Rate [kg/s] !Hourly
675,1,Z8 RADIATOR,Baseboard Total Heating Rate [W] !Hourly
676,1,Z8 RADIATOR,Baseboard Hot Water Mass Flow Rate [kg/s] !Hourly
677,1,HEAT PUMP,Heat Pump Load Side Heat Transfer Rate [W] !Hourly
691,1,HEAT PUMP,Heat Pump Load Side Inlet Temperature [C] !Hourly
692,1,HEAT PUMP,Heat Pump Load Side Outlet Temperature [C] !Hourly
693,1,HEAT PUMP,Heat Pump Electricity Rate [W] !Hourly
768,1,SUPPLY PUMP,Pump Electricity Rate [W] !Hourly
769,1,SUPPLY PUMP,Pump Fluid Heat Gain Rate [W] !Hourly
770,1,SUPPLY PUMP,Pump Mass Flow Rate [kg/s] !Hourly
798,1,Baseboard Total Heating Rate All Zones,PythonPlugin:OutputVariable [W] !Hourly
End of Data Dictionary
1,WINTER DESIGN DAY IN (MID) UK,  53.35,  -2.28,   0.00,  69.00
2,1, 1,15, 0, 1, 0.00,60.00,WinterDesignDay
7,-3.0
8,20.999989537812397
143,20.999989537812397
206,20.99998953781287
269,20.99998953781287
332,19.26170363474827
395,19.26170363474827
458,19.261703634748898
521,19.261703634748898
584,36.23344187112268
647,307.5477690757427
648,0.0191263125
651,307.5477690757427
652,0.0191263125
655,307.54776907573256
656,0.0191263125
659,307.54776907573256
660,0.0191263125
663,363.26898996168427
664,0.029496
667,363.26898996168427
668,0.029496
671,363.2689899616689
672,0.029496
675,363.2689899616689
676,0.029496
677,2680.334062134133
691,32.9364563332089
692,37.869484459998574
693,831.950411714298
768,2.932999990404861
769,2.932999990404861
770,0.19448924999999997
798,1230.1910763029505
2,1, 1,15, 0, 2, 0.00,60.00,WinterDesignDay
7,-3.0
8,20.999985724922727
143,20.999985724922727
206,20.999985724923086
269,20.999985724923086
332,19.26169948017069
395,19.26169948017069
458,19.26169948017114
521,19.26169948017114
584,36.23344362252041
647,307.54788359104913
648,0.0191263125
651,307.54788359104913
652,0.0191263125
655,307.54788359104145
656,0.0191263125
659,307.54788359104145
660,0.0191263125
663,363.26911851778584
664,0.029496
667,363.26911851778584
668,0.029496
671,363.26911851777555
672,0.029496
675,363.26911851777555
676,0.029496
677,2680.3350564333587
691,32.9364568615538
692,37.869486818304196
693,831.9507779785063
768,2.932999990903407
769,2.932999990903407
770,0.19448924999999997
798,1230.191534364181
2,1, 1,15, 0, 3, 0.00,60.00,WinterDesignDay
7,-3.0
8,20.999982387404334
143,20.999982387404334
206,20.99998238740461
269,20.99998238740461
332,19.261695773408057
395,19.261695773408057
458,19.261695773408398
521,19.261695773408398
584,36.233445974422246
647,307.54800056980025
648,0.0191263125
651,307.54800056980025
652,0.0191263125
655,307.5480005697945
656,0.0191263125
659,307.5480005697945
660,0.0191263125
663,363.2692503058885
664,0.029496
667,363.2692503058885
668,0.029496
671,363.26925030588063
672,0.029496
675,363.26925030588063
676,0.029496
677,2680.3360710319776
691,32.93645796543323
692,37.869489789504414
693,831.951165524238
768,2.9329999919450254
769,2.9329999919450254
770,0.19448924999999997
798,1230.1920022791894
2,1, 1,15, 0, 4, 0.00,60.00,WinterDesignDay
7,-3.0
8,20.99997950504522
143,20.99997950504522
206,20.999979505045427
269,20.999979505045427
332,19.261692499715632
395,19.261692499715632
458,19.261692499715878
521,19.261692499715878
584,36.23344885116923
647,307.5481188824782
648,0.0191263125
651,307.5481188824782
652,0.0191263125
655,307.54811888247355
656,0.0191263125
659,307.54811888247355
660,0.0191263125
663,363.26938400956647
664,0.029496
667,363.26938400956647
668,0.029496
671,363.269384009561
672,0.029496
675,363.269384009561
676,0.029496
677,2680.3370962357353
691,32.936459581112786
692,37.86949329202303
693,831.95156934857
768,2.9329999934695783
769,2.9329999934695783
770,0.19448924999999997
798,1230.1924755299037
2,1, 1,15, 0, 5, 0.00,60.00,WinterDesignDay
7,-3.0
8,20.999977056102196
143,20.999977056102196
206,20.99997705610235
269,20.99997705610235
332,19.261689642460492
395,19.261689642460492
458,19.261689642460603
521,19.261689642460603
584,36.23345218036774
647,307.5482374979285
648,0.0191263125
651,307.5482374979285
652,0.0191263125
655,307.5482374979249
656,0.0191263125
659,307.5482374979249
660,0.0191263125
663,363.26951842428707
664,0.029496
667,363.26951842428707
668,0.029496
671,363.26951842428406
672,0.029496
675,363.26951842428406
676,0.029496
677,2680.338123201026
691,32.93646164707708
692,37.869497248068384
693,831.9519848051137
768,2.932999995419019
769,2.932999995419019
770,0.19448924999999997
798,1230.1929499917069
2,1, 1,15, 0, 6, 0.00,60.00,WinterDesignDay
7,-3.0
8,20.999975017613934
143,20.999975017613934
206,20.999975017614027
269,20.999975017614027
332,19.26168718342982
395,19.26168718342982
458,19.26168718342972
521,19.26168718342972
584,36.2334558931281
647,307.54835548177687
648,0.0191263125
651,307.54835548177687
652,0.0191263125
655,307.5483554817745
656,0.0191263125
659,307.5483554817745
660,0.0191263125
663,363.26965245584574
664,0.029496
667,363.26965245584574
668,0.029496
671,363.26965245584665
672,0.029496
675,363.26965245584665
676,0.029496
677,2680.339143920684
691,32.936464104285754
692,37.86950158386334
693,831.9524076052242
768,2.9329999977376375
769,2.9329999977376375
770,0.19448924999999997
798,1230.193421927103
2,1, 1,15, 0, 7, 0.00,60.00,WinterDesignDay
7,-3.0
8,20.999973365693236
143,20.999973365693236
206,20.99997336569325
269,20.99997336569325
332,19.261685103122044
395,19.261685103122044
458,19.261685103121543
521,19.261685103121543
584,36.23345992425373
647,307.54847199426285
648,0.0191263125
651,307.54847199426285
652,0.0191263125
655,307.548471994262
656,0.0191263125
659,307.548471994262
660,0.0191263125
663,363.269785118117
664,0.029496
667,363.269785118117
668,0.029496
671,363.2697851181253
672,0.029496
675,363.2697851181253
676,0.029496
677,2680.340151204695
691,32.93646689638642
692,37.869506229822605
693,831.9528338163492
768,2.93300000037226
769,2.93300000037226
770,0.19448924999999997
798,1230.1938879770496
2,1, 1,15, 0, 8, 0.00,60.00,WinterDesignDay
7,-3.0
8,20.999972075798297
143,20.999972075798297
206,20.999972075798198
269,20.999972075798198
332,19.261683381019232
395,19.261683381019232
458,19.26168338101832
521,19.26168338101832
584,36.2334642123836
647,307.5485862875529
648,0.0191263125
651,307.5485862875529
652,0.0191263125
655,307.5485862875542
656,0.0191263125
659,307.5485862875542
660,0.0191263125
663,363.26991553018763
664,0.029496
667,363.26991553018763
668,0.029496
671,363.2699155302054
672,0.029496
675,363.2699155302054
676,0.029496
677,2680.3411386565076
691,32.93646996988622
692,37.869511120680784
693,831.9532598578063
768,2.9330000032724097
769,2.9330000032724097
770,0.19448924999999997
798,1230.194345150214
2,1, 1,15, 0, 9, 0.00,60.00,WinterDesignDay
7,-3.0
8,20.999971122982885
143,20.999971122982885
206,20.99997112298265
269,20.99997112298265
332,19.261681995841187
395,19.261681995841187
458,19.261681995840156
521,19.261681995840156
584,36.233468700092104
647,307.54869770261587
648,0.0191263125
651,307.54869770261587
652,0.0191263125
655,307.54869770262
656,0.0191263125
659,307.54869770262
660,0.0191263125
663,363.27004291298124
664,0.029496
667,363.27004291298124
668,0.029496
671,363.2700429130036
672,0.029496
675,363.2700429130036
676,0.029496
677,2680.342100645644
691,32.93647327428541
692,37.8695161955755
693,831.9536824943109
768,2.9330000063904356
769,2.9330000063904356
770,0.19448924999999997
798,1230.1947908104717
2,1, 1,15, 0,10, 0.00,60.00,WinterDesignDay
7,-3.0
8,20.999970482125512
143,20.999970482125512
206,20.999970482125207
269,20.999970482125207
332,19.26168092578139
395,19.26168092578139
458,19.261680925780638
521,19.261680925780638
584,36.23347333394904
647,307.54880566572024
648,0.0191263125
651,307.54880566572024
652,0.0191263125
655,307.5488056657264
656,0.0191263125
659,307.5488056657264
660,0.0191263125
663,363.2701665854103
664,0.029496
667,363.2701665854103
668,0.029496
671,363.27016658542874
672,0.029496
675,363.27016658542874
676,0.029496
677,2680.3430322770564
691,32.936476762175005
692,37.869521398088665
693,831.9540988274787
768,2.933000009681603
769,2.933000009681603
770,0.19448924999999997
798,1230.1952226628932
2,1, 1,15, 0,11, 0.00,60.00,WinterDesignDay
7,-3.0
8,20.999970128138056
143,20.999970128138056
206,20.99997012813779
269,20.99997012813779
332,19.26168014872399
395,19.26168014872399
458,19.26168014872379
521,19.26168014872379
584,36.233478064543455
647,307.54890968461484
648,0.0191263125
651,307.54890968461484
652,0.0191263125
655,307.54890968462064
656,0.0191263125
659,307.54890968462064
660,0.0191263125
663,363.2702859601546
664,0.029496
667,363.2702859601546
668,0.029496
671,363.27028596016225
672,0.029496
675,363.27028596016225
676,0.029496
677,2680.3439293578112
691,32.93648038930164
692,37.86952667625002
693,831.9545062855675
768,2.933000013104154
769,2.933000013104154
770,0.19448924999999997
798,1230.1956387384712
2,1, 1,15, 0,12, 0.00,60.00,WinterDesignDay
7,-3.0
8,20.999970036154004
143,20.999970036154004
206,20.999970036153858
269,20.999970036153858
332,19.26167964244208
395,19.26167964244208
458,19.261679642442402
521,19.261679642442402
584,36.233482846474516
647,307.5490093444558
648,0.0191263125
651,307.5490093444558
652,0.0191263125
655,307.5490093444594
656,0.0191263125
659,307.5490093444594
660,0.0191263125
663,363.270400539141
664,0.029496
667,363.270400539141
668,0.029496
671,363.2704005391362
672,0.029496
675,363.2704005391362
676,0.029496
677,2680.3447883616054
691,32.93648411460207
692,37.86953198250632
693,831.9549026117124
768,2.933000016619342
769,2.933000016619342
770,0.19448924999999997
798,1230.1960373778304
2,1, 1,15, 0,13, 0.00,60.00,WinterDesignDay
7,-3.0
8,20.99997018169686
143,20.99997018169686
206,20.999970181696856
269,20.999970181696856
332,19.2616793847783
395,19.2616793847783
458,19.26167938477883
521,19.26167938477883
584,36.23348763831252
647,307.5491043035322
648,0.0191263125
651,307.5491043035322
652,0.0191263125
655,307.54910430353317
656,0.0191263125
659,307.54910430353317
660,0.0191263125
663,363.27050990875864
664,0.029496
667,363.27050990875864
668,0.029496
671,363.27050990874767
672,0.029496
675,363.27050990874767
676,0.029496
677,2680.3456063916283
691,32.93648790020983
692,37.869537273659674
693,831.9552858508921
768,2.933000020191436
769,2.933000020191436
770,0.19448924999999997
798,1230.1964172141306
2,1, 1,15, 0,14, 0.00,60.00,WinterDesignDay
7,-3.0
8,20.999970540829523
143,20.999970540829523
206,20.99997054082961
269,20.99997054082961
332,19.261679353807015
395,19.261679353807015
458,19.26167935380751
521,19.26167935380751
584,36.23349240253363
647,307.54919428885046
648,0.0191263125
651,307.54919428885046
652,0.0191263125
655,307.5491942888491
656,0.0191263125
659,307.5491942888491
660,0.0191263125
663,363.270613734906
664,0.029496
667,363.270613734906
668,0.029496
671,363.2706137348951
672,0.029496
675,363.2706137348951
676,0.029496
677,2680.3463811421716
691,32.9364917114373
692,37.869542510778885
693,831.9556543358452
768,2.933000023787705
769,2.933000023787705
770,0.19448924999999997
798,1230.196777155399
2,1, 1,15, 0,15, 0.00,60.00,WinterDesignDay
7,-3.0
8,20.999971090285086
143,20.999971090285086
206,20.99997109028522
269,20.99997109028522
332,19.261679527979567
395,19.261679527979567
458,19.26167952798008
521,19.26167952798008
584,36.233497105430764
647,307.5492790916103
648,0.0191263125
651,307.5492790916103
652,0.0191263125
655,307.5492790916077
656,0.0191263125
659,307.5492790916077
660,0.0191263125
663,363.2707117578968
664,0.029496
667,363.2707117578968
668,0.029496
671,363.27071175788626
672,0.029496
675,363.27071175788626
676,0.029496
677,2680.347110859386
691,32.936495516734716
692,37.86954765908634
693,831.956006672126
768,2.9330000273783776
769,2.9330000273783776
770,0.19448924999999997
798,1230.197116366436
2,1, 1,15, 0,16, 0.00,60.00,WinterDesignDay
7,-3.0
8,20.999971807580078
143,20.999971807580078
206,20.999971807580238
269,20.999971807580238
332,19.26167988625273
395,19.26167988625273
458,19.261679886253273
521,19.261679886253273
584,36.23350171700413
647,307.5493585626304
648,0.0191263125
651,307.5493585626304
652,0.0191263125
655,307.5493585626274
656,0.0191263125
659,307.5493585626274
660,0.0191263125
663,363.27080378728465
664,0.029496
667,363.27080378728465
668,0.029496
671,363.2708037872733
672,0.029496
675,363.2708037872733
676,0.029496
677,2680.3477943016683
691,32.936499287629545
692,37.869552687824374
693,831.9563417225438
768,2.9330000309365882
769,2.9330000309365882
770,0.19448924999999997
798,1230.1974342505155
2,1, 1,15, 0,17, 0.00,60.00,WinterDesignDay
7,-3.0
8,20.999972671110758
143,20.999972671110758
206,20.99997267111095
269,20.99997267111095
332,19.261680408200252
395,19.261680408200252
458,19.261680408200785
521,19.261680408200785
584,36.23350621083392
647,307.54943260775815
648,0.0191263125
651,307.54943260775815
652,0.0191263125
655,307.5494326077543
656,0.0191263125
659,307.5494326077543
660,0.0191263125
663,363.2708896966705
664,0.029496
667,363.2708896966705
668,0.029496
671,363.27088969665914
672,0.029496
675,363.27088969665914
676,0.029496
677,2680.348430699895
691,32.93650299864805
692,37.86955757010374
693,831.9566585911136
768,2.9330000344383
769,2.9330000344383
770,0.19448924999999997
798,1230.1977304310246
2,1, 1,15, 0,18, 0.00,60.00,WinterDesignDay
7,-3.0
8,20.999973660233444
143,20.999973660233444
206,20.999973660233643
269,20.999973660233643
332,19.26168107410971
395,19.26168107410971
458,19.261681074110115
521,19.261681074110115
584,36.23351056393788
647,307.549501183298
648,0.0191263125
651,307.549501183298
652,0.0191263125
655,307.5495011832937
656,0.0191263125
659,307.5495011832937
660,0.0191263125
663,363.27096941851255
664,0.029496
667,363.27096941851255
668,0.029496
671,363.2709694185031
672,0.029496
675,363.2709694185031
676,0.029496
677,2680.349019717917
691,32.93650662722146
692,37.869562282736965
693,831.956956606725
768,2.9330000378622163
769,2.9330000378622163
770,0.19448924999999997
798,1230.1980047331836
2,1, 1,15, 0,19, 0.00,60.00,WinterDesignDay
7,-3.0
8,20.99997475532977
143,20.99997475532977
206,20.99997475532994
269,20.99997475532994
332,19.26168186506415
395,19.26168186506415
458,19.261681865064283
521,19.261681865064283
584,36.23351475661633
647,307.54956429149786
648,0.0191263125
651,307.54956429149786
652,0.0191263125
655,307.54956429149445
656,0.0191263125
659,307.54956429149445
660,0.0191263125
663,363.2710429389832
664,0.029496
667,363.2710429389832
668,0.029496
671,363.27104293897867
672,0.029496
675,363.27104293897867
676,0.029496
677,2680.3495614134895
691,32.936510153579064
692,37.86956680605966
693,831.9572353066437
768,2.9330000411896826
769,2.9330000411896826
770,0.19448924999999997
798,1230.1982571659846
2,1, 1,15, 0,20, 0.00,60.00,WinterDesignDay
7,-3.0
8,20.99997593785787
143,20.99997593785787
206,20.999975937857965
269,20.999975937857965
332,19.261682763010015
395,19.261682763010015
458,19.261682763009766
521,19.261682763009766
584,36.23351877228719
647,307.5496219761187
648,0.0191263125
651,307.5496219761187
652,0.0191263125
655,307.5496219761163
656,0.0191263125
659,307.5496219761163
660,0.0191263125
663,363.27111029291933
664,0.029496
667,363.27111029291933
668,0.029496
671,363.2711102929231
672,0.029496
675,363.2711102929231
676,0.029496
677,2680.350056200019
691,32.93651356063025
692,37.86957112374206
693,831.9574944200353
768,2.933000044404571
769,2.933000044404571
770,0.19448924999999997
798,1230.1984879044699
2,1, 1,15, 0,21, 0.00,60.00,WinterDesignDay
7,-3.0
8,20.999977190390386
143,20.999977190390386
206,20.999977190390382
269,20.999977190390382
332,19.261683750812168
395,19.261683750812168
458,19.26168375081163
521,19.26168375081163
584,36.23352259731272
647,307.5496743181074
648,0.0191263125
651,307.5496743181074
652,0.0191263125
655,307.5496743181072
656,0.0191263125
659,307.5496743181072
660,0.0191263125
663,363.271171558871
664,0.029496
667,363.271171558871
668,0.029496
671,363.2711715588811
672,0.029496
675,363.2711715588811
676,0.029496
677,2680.350504809172
691,32.9365168338373
692,37.86957522259304
693,831.957733851567
768,2.933000047493164
769,2.933000047493164
770,0.19448924999999997
798,1230.198697272429
2,1, 1,15, 0,22, 0.00,60.00,WinterDesignDay
7,-3.0
8,20.999978496640455
143,20.999978496640455
206,20.99997849664035
269,20.99997849664035
332,19.261684812296423
395,19.261684812296423
458,19.26168481229579
521,19.26168481229579
584,36.23352622082085
647,307.54972143140935
648,0.0191263125
651,307.54972143140935
652,0.0191263125
655,307.54972143141106
656,0.0191263125
659,307.54972143141106
660,0.0191263125
663,363.2712268543028
664,0.029496
667,363.2712268543028
668,0.029496
671,363.2712268543164
672,0.029496
675,363.2712268543164
676,0.029496
677,2680.350908254736
691,32.936519961081096
692,37.86957909235933
693,831.9579536652836
768,2.9330000504440266
769,2.9330000504440266
770,0.19448924999999997
798,1230.1988857256408
2,1, 1,15, 0,23, 0.00,60.00,WinterDesignDay
7,-3.0
8,20.99997984147641
143,20.99997984147641
206,20.999979841476236
269,20.999979841476236
332,19.261685932280663
395,19.261685932280663
458,19.261685932280077
521,19.261685932280077
584,36.23352963452236
647,307.5497634589266
648,0.0191263125
651,307.5497634589266
652,0.0191263125
655,307.54976345892965
656,0.0191263125
659,307.54976345892965
660,0.0191263125
663,363.27127633095955
664,0.029496
667,363.27127633095955
668,0.029496
671,363.27127633097246
672,0.029496
675,363.27127633097246
676,0.029496
677,2680.351267797783
691,32.936522932521235
692,37.86958272552145
693,831.9581540688076
768,2.933000053247874
769,2.933000053247874
770,0.19448924999999997
798,1230.1990538357122
2,1, 1,15, 0,24, 0.00,60.00,WinterDesignDay
7,-3.0
8,20.99998121092622
143,20.99998121092622
206,20.999981210926027
269,20.999981210926027
332,19.261687096595104
395,19.261687096595104
458,19.261687096594724
521,19.261687096594724
584,36.23353283252577
647,307.5498005686401
648,0.0191263125
651,307.5498005686401
652,0.0191263125
655,307.54980056864395
656,0.0191263125
659,307.54980056864395
660,0.0191263125
663,363.27132017041066
664,0.029496
667,363.27132017041066
668,0.029496
671,363.2713201704203
672,0.029496
675,363.2713201704203
676,0.029496
677,2680.3515849132405
691,32.93652574045196
692,37.86958611708819
693,831.9583353979383
768,2.933000055897433
769,2.933000055897433
770,0.19448924999999997
798,1230.199202274568
End of Data
 Number of Records Written=         816
