Program Version,EnergyPlus, Version 24.2.0-94a887817b, YMD=2026.01.14 16:15
1,5,Environment Title[],Latitude[deg],Longitude[deg],Time Zone[],Elevation[m]
2,8,Day of Simulation[],Month[],Day of Month[],DST Indicator[1=yes 0=no],Hour[],StartMinute[],EndMinute[],DayType
3,5,Cumulative Day of Simulation[],Month[],Day of Month[],DST Indicator[1=yes 0=no],DayType  ! When Daily Report Variables Requested
4,2,Cumulative Days of Simulation[],Month[]  ! When Monthly Report Variables Requested
5,1,Cumulative Days of Simulation[] ! When Run Period Report Variables Requested
6,1,Calendar Year of Simulation[] ! When Annual Report Variables Requested
7,1,Environment,Site Outdoor Air Drybulb Temperature [C] !Hourly
8,1,Z1,Zone Operative Temperature [C] !Hourly
9,1,Z2,Zone Operative Temperature [C] !Hourly
10,1,Z3,Zone Operative Temperature [C] !Hourly
11,1,Z4,Zone Operative Temperature [C] !Hourly
12,1,Z1,Zone Air Temperature [C] !Hourly
147,1,Z2,Zone Air Temperature [C] !Hourly
210,1,Z3,Zone Air Temperature [C] !Hourly
273,1,Z4,Zone Air Temperature [C] !Hourly
336,1,HOT WATER LOOP,Plant Supply Side Outlet Temperature [C] !Hourly
399,1,Z1 RADIATOR,Baseboard Total Heating Rate [W] !Hourly
400,1,Z1 RADIATOR,Baseboard Hot Water Mass Flow Rate [kg/s] !Hourly
403,1,Z2 RADIATOR,Baseboard Total Heating Rate [W] !Hourly
404,1,Z2 RADIATOR,Baseboard Hot Water Mass Flow Rate [kg/s] !Hourly
407,1,Z3 RADIATOR,Baseboard Total Heating Rate [W] !Hourly
408,1,Z3 RADIATOR,Baseboard Hot Water Mass Flow Rate [kg/s] !Hourly
411,1,Z4 RADIATOR,Baseboard Total Heating Rate [W] !Hourly
412,1,Z4 RADIATOR,Baseboard Hot Water Mass Flow Rate [kg/s] !Hourly
413,1,HEAT PUMP,Heat Pump Load Side Heat Transfer Rate [W] !Hourly
427,1,HEAT PUMP,Heat Pump Load Side Inlet Temperature [C] !Hourly
428,1,HEAT PUMP,Heat Pump Electricity Rate [W] !Hourly
503,1,SUPPLY PUMP,Pump Electricity Rate [W] !Hourly
504,1,SUPPLY PUMP,Pump Fluid Heat Gain Rate [W] !Hourly
505,1,SUPPLY PUMP,Pump Mass Flow Rate [kg/s] !Hourly
533,1,Baseboard Total Heating Rate All Zones,PythonPlugin:OutputVariable [W] !Hourly
End of Data Dictionary
1,WINTER DESIGN DAY IN (MID) UK,  53.35,  -2.28,   0.00,  69.00
2,1, 1,15, 0, 1, 0.00,60.00,WinterDesignDay
7,-3.0
8,19.61142857459155
9,17.999797975067565
10,17.99979797506401
11,19.611428574588587
12,20.832263274872773
147,18.404405423901824
210,18.404405423898353
273,20.832263274870076
336,55.0
399,532.6885857787917
400,0.029496
403,320.0236786739215
404,0.0026410297851562504
407,320.0236786739527
408,0.0026410297851562504
411,532.6885857788329
412,0.029496
413,1702.9054393357933
427,51.86719228161088
428,794.5887772666913
503,1.9752000161777397
504,1.9752000161777397
505,0.12998674
533,1705.4245289054988
2,1, 1,15, 0, 2, 0.00,60.00,WinterDesignDay
7,-3.0
8,19.61141225504066
9,17.99999258787373
10,17.999992587870913
11,19.611412255037784
12,20.83225291270507
147,18.404759258287953
210,18.404759258285118
273,20.83225291270239
336,55.0
399,532.6886552723706
400,0.029496
403,320.01879852758435
404,0.0026410297851562504
407,320.01879852761084
408,0.0026410297851562504
411,532.6886552724131
412,0.029496
413,1702.9620860696034
427,51.867088032782924
428,794.6152090684313
503,1.9751999202246848
504,1.9751999202246848
505,0.12998674
533,1705.4149075999787
2,1, 1,15, 0, 3, 0.00,60.00,WinterDesignDay
7,-3.0
8,19.611443090458938
9,17.999901663942147
10,17.99990166394033
11,19.61144309045645
12,20.832270779217872
147,18.404547200299604
210,18.404547200297692
273,20.832270779215513
336,55.0
399,532.6885773316534
400,0.029496
403,320.0213315481455
404,0.0026410297851562504
407,320.0213315481642
408,0.0026410297851562504
411,532.6885773316917
412,0.029496
413,1702.9004781169695
427,51.867201408685446
428,794.586462323825
503,1.9752000245785506
504,1.9752000245785506
505,0.12998674
533,1705.4198177596547
2,1, 1,15, 0, 4, 0.00,60.00,WinterDesignDay
7,-3.0
8,19.61143571957482
9,17.999956108086057
10,17.99995610808522
11,19.611435719572754
12,20.8322711510834
147,18.404671771336428
210,18.404671771335437
273,20.832271151081407
336,55.0
399,532.6883958396791
400,0.029496
403,320.0216979770057
404,0.0026410297851562504
407,320.0216979770165
408,0.0026410297851562504
411,532.6883958397119
412,0.029496
413,1702.9344127785105
427,51.867138960957384
428,794.6022964979359
503,1.9751999670999527
504,1.9751999670999527
505,0.12998674
533,1705.4201876334132
2,1, 1,15, 0, 5, 0.00,60.00,WinterDesignDay
7,-3.0
8,19.61143099688686
9,17.99974431697579
10,17.99974431697565
11,19.611430996885314
12,20.832266192567772
147,18.4042549367439
210,18.404254936743627
273,20.83226619256625
336,55.0
399,532.6884940377228
400,0.029496
403,319.89487086483564
404,0.0026392294921875007
407,319.8948708648393
408,0.0026392294921875007
411,532.6884940377488
412,0.029496
413,1702.7133261436652
427,51.86754581436121
428,794.4991357734506
503,1.975200341579201
504,1.975200341579201
505,0.12998674
533,1705.1667298051466
2,1, 1,15, 0, 6, 0.00,60.00,WinterDesignDay
7,-3.0
8,19.611425905387208
9,17.999785787869303
10,17.999785787869747
11,19.61142590538617
12,20.832261537798704
147,18.404391565259203
210,18.404391565259495
273,20.832261537797653
336,55.0
399,532.6886074321947
400,0.029496
403,320.0238097501833
404,0.0026410297851562504
407,320.02380975018207
408,0.0026410297851562504
411,532.6886074322132
412,0.029496
413,1702.9057472274596
427,51.86719171518754
428,794.5889209313111
503,1.9752000156563883
504,1.9752000156563883
505,0.12998674
533,1705.4248343647732
2,1, 1,15, 0, 7, 0.00,60.00,WinterDesignDay
7,-3.0
8,19.611408934814555
9,17.999983297843976
10,17.999983297845255
11,19.611408934813948
12,20.832250306422694
147,18.404749423766518
210,18.404749423767583
273,20.832250306422054
336,55.0
399,532.6886935258083
400,0.029496
403,320.0188919501471
404,0.0026410297851562504
407,320.01889195013956
408,0.0026410297851562504
411,532.6886935258196
412,0.029496
413,1702.9623501067917
427,51.867087547037954
428,794.6153322702145
503,1.9751999197775918
504,1.9751999197775918
505,0.12998674
533,1705.4151709519147
2,1, 1,15, 0, 8, 0.00,60.00,WinterDesignDay
7,-3.0
8,19.61143956329743
9,17.99989422525609
10,17.999894225258032
11,19.61143956329707
12,20.83226781656223
147,18.404539654513453
210,18.40453965451519
273,20.83226781656184
336,55.0
399,532.6886226266937
400,0.029496
403,320.0214011351728
404,0.0026410297851562504
407,320.0214011351588
408,0.0026410297851562504
411,532.6886226267009
412,0.029496
413,1702.9007088656674
427,51.86720098418077
428,794.5865699929424
503,1.975200024187825
504,1.975200024187825
505,0.12998674
533,1705.4200475237265
2,1, 1,15, 0, 9, 0.00,60.00,WinterDesignDay
7,-3.0
8,19.611432201111604
9,17.999949827090145
10,17.999949827092596
11,19.61143220111162
12,20.832268093666116
147,18.40466550305315
210,18.404665503055387
273,20.832268093666062
336,55.0
399,532.6884433681428
400,0.029496
403,320.02175574721633
404,0.0026410297851562504
407,320.021755747198
408,0.0026410297851562504
411,532.6884433681455
412,0.029496
413,1702.9346238310368
427,51.86713857268744
428,794.602394976668
503,1.9751999667425784
504,1.9751999667425784
505,0.12998674
533,1705.4203982307026
2,1, 1,15, 0,10, 0.00,60.00,WinterDesignDay
7,-3.0
8,19.61142757991663
9,17.999738924155423
10,17.999738924158137
11,19.611427579917105
12,20.832263166166285
147,18.40424964539848
210,18.40424964540102
273,20.83226316616666
336,55.0
399,532.6885414668513
400,0.029496
403,319.8949190996295
404,0.0026392294921875007
407,319.89491909960753
408,0.0026392294921875007
411,532.6885414668475
412,0.029496
413,1702.7135180243251
427,51.86754546136145
428,794.4992253064424
503,1.9752003412542902
504,1.9752003412542902
505,0.12998674
533,1705.1669211329358
2,1, 1,15, 0,11, 0.00,60.00,WinterDesignDay
7,-3.0
8,19.61142263928776
9,17.999968723681278
10,17.9999687236839
11,19.61142263928872
12,20.832258610468365
147,18.404762303035632
210,18.404762303038137
273,20.832258610469182
336,55.0
399,532.688653520082
400,0.029496
403,320.1488492715461
404,0.0026428300781250005
407,320.148849271524
408,0.0026428300781250005
411,532.6886535200714
412,0.029496
413,1703.1237490687404
427,51.86679053703449
428,794.6906422673901
503,1.9751996464012804
504,1.9751996464012804
505,0.12998674
533,1705.6750055832233
2,1, 1,15, 0,12, 0.00,60.00,WinterDesignDay
7,-3.0
8,19.61143010797153
9,17.999905070259278
10,17.999905070261818
11,19.61143010797302
12,20.832263522518204
147,18.40451798393051
210,18.40451798393295
273,20.83226352251951
336,55.0
399,532.6885979485638
400,0.029496
403,319.89147654625657
404,0.0026392294921875007
407,319.89147654623514
408,0.0026392294921875007
411,532.6885979485455
412,0.029496
413,1702.7392416646726
427,51.86749811972249
428,794.5112281549028
503,1.9752002976796852
504,1.9752002976796852
505,0.12998674
533,1705.160148989601
2,1, 1,15, 0,13, 0.00,60.00,WinterDesignDay
7,-3.0
8,19.611444358973863
9,17.99985612195269
10,17.99985612195527
11,19.611444358975717
12,20.832275086077303
147,18.404476076530432
210,18.404476076532898
273,20.832275086078965
336,55.0
399,532.6884225220319
400,0.029496
403,320.02303054572974
404,0.0026410297851562504
407,320.02303054570837
408,0.0026410297851562504
411,532.6884225220069
412,0.029496
413,1702.9038181132726
427,51.86719526414785
428,794.5880207917922
503,1.9752000189229495
504,1.9752000189229495
505,0.12998674
533,1705.4229061354768
2,1, 1,15, 0,14, 0.00,60.00,WinterDesignDay
7,-3.0
8,19.611431354087518
9,17.9999305655711
10,17.99993056557375
11,19.611431354089568
12,20.832268718010702
147,18.404639707865655
210,18.404639707868185
273,20.832268718012575
336,55.0
399,532.6884187458363
400,0.029496
403,320.02203276119536
404,0.0026410297851562504
407,320.0220327611734
408,0.0026410297851562504
411,532.6884187458077
412,0.029496
413,1702.9351271022656
427,51.867137646827466
428,794.6026298068948
503,1.9751999658903914
504,1.9751999658903914
505,0.12998674
533,1705.4209030140128
2,1, 1,15, 0,15, 0.00,60.00,WinterDesignDay
7,-3.0
8,19.611424758691324
9,17.99972586778503
10,17.99972586778777
11,19.611424758693325
12,20.83226138241758
147,18.404234613256808
210,18.40423461325942
273,20.832261382419446
336,55.0
399,532.6885627180308
400,0.029496
403,319.89506705796924
404,0.0026392294921875007
407,319.8950670579467
408,0.0026392294921875007
411,532.6885627180012
412,0.029496
413,1702.71385941768
427,51.867544833305615
428,794.499384603208
503,1.9752003406762102
504,1.9752003406762102
505,0.12998674
533,1705.1672595519476
2,1, 1,15, 0,16, 0.00,60.00,WinterDesignDay
7,-3.0
8,19.61141905256881
9,17.99995872396541
10,17.999958723968383
11,19.611419052570433
12,20.832255804238557
147,18.40475154993709
210,18.404751549939895
273,20.83225580424012
336,55.0
399,532.688694442649
400,0.029496
403,320.14894922222277
404,0.0026428300781250005
407,320.14894922219867
408,0.0026428300781250005
411,532.6886944426234
412,0.029496
413,1703.124032309194
427,51.86679001596158
428,794.6907744295647
503,1.9751996459216707
504,1.9751996459216707
505,0.12998674
533,1705.6752873296937
2,1, 1,15, 0,17, 0.00,60.00,WinterDesignDay
7,-3.0
8,19.61142627316739
9,17.99989715567806
10,17.999897155681154
11,19.61142627316869
12,20.832260301389518
147,18.404509936383977
210,18.404509936386926
273,20.83226030139077
336,55.0
399,532.6886471244076
400,0.029496
403,319.8915521676924
404,0.0026392294921875007
407,319.89155216766665
408,0.0026392294921875007
411,532.6886471243872
412,0.029496
413,1702.7394920636468
427,51.86749765906754
428,794.5113449929904
503,1.9752002972556855
504,1.9752002972556855
505,0.12998674
533,1705.1603985841537
2,1, 1,15, 0,18, 0.00,60.00,WinterDesignDay
7,-3.0
8,19.61144052776953
9,17.999849440431042
10,17.99984944043382
11,19.61144052777064
12,20.83227175373016
147,18.404469368534052
210,18.40446936853676
273,20.83227175373123
336,55.0
399,532.6884743181714
400,0.029496
403,320.02309148152557
404,0.0026410297851562504
407,320.02309148150107
408,0.0026410297851562504
411,532.6884743181547
412,0.029496
413,1702.904044165433
427,51.86719484828333
428,794.5881262694692
503,1.9752000185401761
504,1.9752000185401761
505,0.12998674
533,1705.4231315993527
2,1, 1,15, 0,19, 0.00,60.00,WinterDesignDay
7,-3.0
8,19.611427635346885
9,17.999924843482937
10,17.999924843485292
11,19.61142763534814
12,20.83226542009286
147,18.404634079761355
210,18.404634079763674
273,20.832265420094014
336,55.0
399,532.6884704464221
400,0.029496
403,320.02208414176255
404,0.0026410297851562504
407,320.02208414174146
408,0.0026410297851562504
411,532.6884704464056
412,0.029496
413,1702.9353337090818
427,51.867137266736236
428,794.6027262112243
503,1.9751999655405448
504,1.9751999655405448
505,0.12998674
533,1705.4211091763316
2,1, 1,15, 0,20, 0.00,60.00,WinterDesignDay
7,-3.0
8,19.611421206721182
9,17.999720858178623
10,17.99972085818094
11,19.611421206723186
12,20.83225819514078
147,18.40422974596145
210,18.404229745963686
273,20.832258195142558
336,55.0
399,532.6886129096143
400,0.029496
403,319.8951111628185
404,0.0026392294921875007
407,319.89511116279914
408,0.0026392294921875007
411,532.6886129095893
412,0.029496
413,1702.7140485127916
427,51.8675444854304
428,794.4994728364416
503,1.975200340356016
504,1.975200340356016
505,0.12998674
533,1705.1674481448213
2,1, 1,15, 0,21, 0.00,60.00,WinterDesignDay
7,-3.0
8,19.611427396223934
9,18.000134498455303
10,18.000134498457612
11,19.611427396227008
12,20.83226172529693
147,18.405027819220926
210,18.40502781922315
273,20.832261725299652
336,55.0
399,532.6886459042964
400,0.029496
403,320.14543087546804
404,0.0026428300781250005
407,320.14543087544837
408,0.0026428300781250005
411,532.6886459042581
412,0.029496
413,1703.1494701364732
427,51.86674320012841
428,794.7026439154486
503,1.975199602831031
504,1.975199602831031
505,0.12998674
533,1705.6681535594712
2,1, 1,15, 0,22, 0.00,60.00,WinterDesignDay
7,-3.0
8,19.611441917740223
9,17.999798615785483
10,17.99979861578753
11,19.611441917744344
12,20.83227294611141
147,18.404323557467848
210,18.404323557469848
273,20.832272946115097
336,55.0
399,532.6884291201875
400,0.029496
403,319.89423710824235
404,0.0026392294921875007
407,319.8942371082242
408,0.0026392294921875007
411,532.6884291201335
412,0.029496
413,1702.7118578165635
427,51.867548515618836
428,794.49845064073
503,1.9752003440655144
504,1.9752003440655144
505,0.12998674
533,1705.1653324567874
2,1, 1,15, 0,23, 0.00,60.00,WinterDesignDay
7,-3.0
8,19.611440677627353
9,17.999826859692558
10,17.99982685969441
11,19.61144067763224
12,20.832273159589686
147,18.404437574840635
210,18.40443757484244
273,20.83227315959412
336,55.0
399,532.6884409263528
400,0.029496
403,320.02337574370495
404,0.0026410297851562504
407,320.02337574368886
408,0.0026410297851562504
411,532.6884409262859
412,0.029496
413,1702.904535669498
427,51.86719394407122
428,794.5883556090466
503,1.9752000177079143
504,1.9752000177079143
505,0.12998674
533,1705.4236333400327
2,1, 1,15, 0,24, 0.00,60.00,WinterDesignDay
7,-3.0
8,19.61142502105876
9,17.999910436741146
10,17.999910436742915
11,19.61142502106415
12,20.832263898537036
147,18.40461704112904
210,18.404617041130752
273,20.832263898541967
336,55.0
399,532.6884865663892
400,0.029496
403,320.0222527446795
404,0.0026410297851562504
407,320.02225274466434
408,0.0026410297851562504
411,532.6884865663142
412,0.029496
413,1702.9357050560252
427,51.86713658357524
428,794.6028994845647
503,1.9751999649117447
504,1.9751999649117447
505,0.12998674
533,1705.421478622047
End of Data
 Number of Records Written=         600
