Program Version,EnergyPlus, Version 24.2.0-94a887817b, YMD=2025.07.04 12:01
1,5,Environment Title[],Latitude[deg],Longitude[deg],Time Zone[],Elevation[m]
2,8,Day of Simulation[],Month[],Day of Month[],DST Indicator[1=yes 0=no],Hour[],StartMinute[],EndMinute[],DayType
3,5,Cumulative Day of Simulation[],Month[],Day of Month[],DST Indicator[1=yes 0=no],DayType  ! When Daily Report Variables Requested
4,2,Cumulative Days of Simulation[],Month[]  ! When Monthly Report Variables Requested
5,1,Cumulative Days of Simulation[] ! When Run Period Report Variables Requested
6,1,Calendar Year of Simulation[] ! When Annual Report Variables Requested
7,1,Environment,Site Outdoor Air Drybulb Temperature [C] !Hourly
8,1,Z1,Zone Air Temperature [C] !Hourly
143,1,Z2,Zone Air Temperature [C] !Hourly
206,1,Z3,Zone Air Temperature [C] !Hourly
269,1,Z4,Zone Air Temperature [C] !Hourly
332,1,HOT WATER LOOP,Plant Supply Side Outlet Temperature [C] !Hourly
395,1,Z1 RADIATOR,Baseboard Total Heating Rate [W] !Hourly
396,1,Z1 RADIATOR,Baseboard Hot Water Mass Flow Rate [kg/s] !Hourly
399,1,Z2 RADIATOR,Baseboard Total Heating Rate [W] !Hourly
400,1,Z2 RADIATOR,Baseboard Hot Water Mass Flow Rate [kg/s] !Hourly
403,1,Z3 RADIATOR,Baseboard Total Heating Rate [W] !Hourly
404,1,Z3 RADIATOR,Baseboard Hot Water Mass Flow Rate [kg/s] !Hourly
407,1,Z4 RADIATOR,Baseboard Total Heating Rate [W] !Hourly
408,1,Z4 RADIATOR,Baseboard Hot Water Mass Flow Rate [kg/s] !Hourly
409,1,HEAT PUMP,Heat Pump Load Side Heat Transfer Rate [W] !Hourly
423,1,HEAT PUMP,Heat Pump Load Side Inlet Temperature [C] !Hourly
424,1,HEAT PUMP,Heat Pump Electricity Rate [W] !Hourly
499,1,SUPPLY PUMP,Pump Electricity Rate [W] !Hourly
500,1,SUPPLY PUMP,Pump Fluid Heat Gain Rate [W] !Hourly
501,1,SUPPLY PUMP,Pump Mass Flow Rate [kg/s] !Hourly
529,1,Baseboard Total Heating Rate All Zones,PythonPlugin:OutputVariable [W] !Hourly
End of Data Dictionary
1,WINTER DESIGN DAY IN (MID) UK,  53.35,  -2.28,   0.00,  69.00
2,1, 1,15, 0, 1, 0.00,60.00,WinterDesignDay
7,-3.0
8,21.00019449718235
143,21.00019449718235
206,21.00019449718235
269,21.00019449718235
332,45.01720100573877
395,444.26437966026697
396,0.0292655625
399,444.26437966026697
400,0.0292655625
403,444.26437966026697
404,0.0292655625
407,444.26437966026697
408,0.0292655625
409,1775.1823489904384
423,41.750061815343265
424,666.7092193084349
499,1.9665165392090591
500,1.9665165392090591
501,0.12998674
529,1777.0575186410679
2,1, 1,15, 0, 2, 0.00,60.00,WinterDesignDay
7,-3.0
8,21.000435301819905
143,21.000435301819905
206,21.000435301819905
269,21.000435301819905
332,45.01714710320783
395,444.44374983961575
396,0.02938078125
399,444.44374983961575
400,0.02938078125
403,444.44374983961575
404,0.02938078125
407,444.44374983961575
408,0.02938078125
409,1775.715226239562
423,41.74902717742744
424,666.9084803369562
499,1.9665157183788566
500,1.9665157183788566
501,0.12998674
529,1777.774999358463
2,1, 1,15, 0, 3, 0.00,60.00,WinterDesignDay
7,-3.0
8,20.99994160732983
143,20.99994160732983
206,20.99994160732983
269,20.99994160732983
332,45.017103618375906
395,444.26633692782787
396,0.0292655625
399,444.26633692782787
400,0.0292655625
403,444.26633692782787
404,0.0292655625
407,444.26633692782787
408,0.0292655625
409,1775.092019332315
423,41.75013067544578
424,666.6737173351246
499,1.966516593839045
500,1.966516593839045
501,0.12998674
529,1777.0653477113115
2,1, 1,15, 0, 4, 0.00,60.00,WinterDesignDay
7,-3.0
8,21.000225881178828
143,21.000225881178828
206,21.000225881178828
269,21.000225881178828
332,45.01707122761586
395,444.2604069864854
396,0.0292655625
399,444.2604069864854
400,0.0292655625
403,444.2604069864854
404,0.0292655625
407,444.2604069864854
408,0.0292655625
409,1775.163175269482
423,41.749967325547324
424,666.6999173501054
499,1.9665164642455513
500,1.9665164642455513
501,0.12998674
529,1777.0416279459416
2,1, 1,15, 0, 5, 0.00,60.00,WinterDesignDay
7,-3.0
8,21.000508601410992
143,21.000508601410992
206,21.000508601410992
269,21.000508601410992
332,45.017026643348906
395,444.4366858584404
396,0.02938078125
399,444.4366858584404
400,0.02938078125
403,444.4366858584404
404,0.02938078125
407,444.4366858584404
408,0.02938078125
409,1775.6865586206507
423,41.748959478965844
424,666.8957629701313
499,1.9665156646703954
500,1.9665156646703954
501,0.12998674
529,1777.7467434337616
2,1, 1,15, 0, 6, 0.00,60.00,WinterDesignDay
7,-3.0
8,21.00019351457045
143,21.00019351457045
206,21.00019351457045
269,21.00019351457045
332,45.01699204844186
395,444.26044879008305
396,0.0292655625
399,444.26044879008305
400,0.0292655625
403,444.26044879008305
404,0.0292655625
407,444.26044879008305
408,0.0292655625
409,1775.1665577620204
423,41.74988192105572
424,666.6999059276391
499,1.9665163964899164
500,1.9665163964899164
501,0.12998674
529,1777.0417951603322
2,1, 1,15, 0, 7, 0.00,60.00,WinterDesignDay
7,-3.0
8,21.00042028315793
143,21.00042028315793
206,21.00042028315793
269,21.00042028315793
332,45.01693857157716
395,444.44010930270485
396,0.02938078125
399,444.44010930270485
400,0.02938078125
403,444.44010930270485
404,0.02938078125
407,444.44010930270485
408,0.02938078125
409,1775.7006974624182
423,41.748845385324245
424,666.8996469826044
499,1.9665155741542024
500,1.9665155741542024
501,0.12998674
529,1777.7604372108194
2,1, 1,15, 0, 8, 0.00,60.00,WinterDesignDay
7,-3.0
8,20.99991443550097
143,20.99991443550097
206,20.99991443550097
269,20.99991443550097
332,45.01689776501039
395,444.26298107037167
396,0.0292655625
399,444.26298107037167
400,0.0292655625
403,444.26298107037167
404,0.0292655625
407,444.26298107037167
408,0.0292655625
409,1775.0787002805873
423,41.749949335165304
424,666.6653828644488
499,1.966516449972716
500,1.966516449972716
501,0.12998674
529,1777.0519242814867
2,1, 1,15, 0, 9, 0.00,60.00,WinterDesignDay
7,-3.0
8,21.000188752134626
143,21.000188752134626
206,21.000188752134626
269,21.000188752134626
332,45.01686992835128
395,444.25732149621183
396,0.0292655625
399,444.25732149621183
400,0.0292655625
403,444.25732149621183
404,0.0292655625
407,444.25732149621183
408,0.0292655625
409,1775.1510062796792
423,41.749788422733175
424,666.6920883870459
499,1.966516322313005
500,1.966516322313005
501,0.12998674
529,1777.0292859848473
2,1, 1,15, 0,10, 0.00,60.00,WinterDesignDay
7,-3.0
8,21.000463676947696
143,21.000463676947696
206,21.000463676947696
269,21.000463676947696
332,45.01683142522677
395,444.4338680385688
396,0.02938078125
399,444.4338680385688
400,0.02938078125
403,444.4338680385688
404,0.02938078125
407,444.4338680385688
408,0.02938078125
409,1775.6755081411125
423,41.748784598728875
424,666.8884516024827
499,1.9665155259292733
500,1.9665155259292733
501,0.12998674
529,1777.7354721542752
2,1, 1,15, 0,11, 0.00,60.00,WinterDesignDay
7,-3.0
8,21.000142233352328
143,21.000142233352328
206,21.000142233352328
269,21.000142233352328
332,45.016804156493315
395,444.2578868077669
396,0.0292655625
399,444.2578868077669
400,0.0292655625
403,444.2578868077669
404,0.0292655625
407,444.2578868077669
408,0.0292655625
409,1775.1565763262631
423,41.7497123994678
424,666.6931155896549
499,1.9665162619999745
500,1.9665162619999745
501,0.12998674
529,1777.0315472310676
2,1, 1,15, 0,12, 0.00,60.00,WinterDesignDay
7,-3.0
8,21.000364342136297
143,21.000364342136297
206,21.000364342136297
269,21.000364342136297
332,45.01675897476087
395,444.43779657151947
396,0.02938078125
399,444.43779657151947
400,0.02938078125
403,444.43779657151947
404,0.02938078125
407,444.43779657151947
408,0.02938078125
409,1775.6917461930302
423,41.74868226289608
424,666.8933769625165
499,1.9665154447411406
500,1.9665154447411406
501,0.12998674
529,1777.7511862860779
2,1, 1,15, 0,13, 0.00,60.00,WinterDesignDay
7,-3.0
8,20.999854930508466
143,20.999854930508466
206,20.999854930508466
269,20.999854930508466
332,45.01672720194903
395,444.2609072694356
396,0.0292655625
399,444.2609072694356
400,0.0292655625
403,444.2609072694356
404,0.0292655625
407,444.2609072694356
408,0.0292655625
409,1775.0707271686367
423,41.74979344623955
424,666.6596274668328
499,1.9665163262982368
500,1.9665163262982368
501,0.12998674
529,1777.0436290777425
2,1, 1,15, 0,14, 0.00,60.00,WinterDesignDay
7,-3.0
8,21.000126883696083
143,21.000126883696083
206,21.000126883696083
269,21.000126883696083
332,45.01670893625924
395,444.2554715483108
396,0.0292655625
399,444.2554715483108
400,0.0292655625
403,444.2554715483108
404,0.0292655625
407,444.2554715483108
408,0.0292655625
409,1775.1439456703317
423,41.749640425358855
424,666.6868304938066
499,1.9665162048993061
500,1.9665162048993061
501,0.12998674
529,1777.0218861932433
2,1, 1,15, 0,15, 0.00,60.00,WinterDesignDay
7,-3.0
8,21.00040052816399
143,21.00040052816399
206,21.00040052816399
269,21.00040052816399
332,45.016680355114886
395,444.43222990993036
396,0.02938078125
399,444.43222990993036
400,0.02938078125
403,444.43222990993036
404,0.02938078125
407,444.43222990993036
408,0.02938078125
409,1775.669308324303
423,41.74864493908673
424,666.8836768980793
499,1.966515415130402
500,1.966515415130402
501,0.12998674
529,1777.7289196397214
2,1, 1,15, 0,16, 0.00,60.00,WinterDesignDay
7,-3.0
8,21.000078644542704
143,21.000078644542704
206,21.000078644542704
269,21.000078644542704
332,45.01666320246134
395,444.25644778104476
396,0.0292655625
399,444.25644778104476
400,0.0292655625
403,444.25644778104476
404,0.0292655625
407,444.25644778104476
408,0.0292655625
409,1775.1511799788336
423,41.74958137715816
424,666.6888071253039
499,1.9665161580534452
500,1.9665161580534452
501,0.12998674
529,1777.025791124179
2,1, 1,15, 0,17, 0.00,60.00,WinterDesignDay
7,-3.0
8,21.0005056128484
143,21.0005056128484
206,21.0005056128484
269,21.0005056128484
332,45.01660395532229
395,444.4281589507198
396,0.02938078125
399,444.4281589507198
400,0.02938078125
403,444.4281589507198
404,0.02938078125
407,444.4281589507198
408,0.02938078125
409,1775.648842715856
423,41.74860620527895
424,666.8747535880623
499,1.9665153844009589
500,1.9665153844009589
501,0.12998674
529,1777.7126358028793
2,1, 1,15, 0,18, 0.00,60.00,WinterDesignDay
7,-3.0
8,21.00015710967249
143,21.00015710967249
206,21.00015710967249
269,21.00015710967249
332,45.0165681857642
395,444.2530381796528
396,0.0292655625
399,444.2530381796528
400,0.0292655625
403,444.2530381796528
404,0.0292655625
407,444.2530381796528
408,0.0292655625
409,1775.1368513053312
423,41.749512731707206
424,666.6818876213024
499,1.9665161035935925
500,1.9665161035935925
501,0.12998674
529,1777.012152718611
2,1, 1,15, 0,19, 0.00,60.00,WinterDesignDay
7,-3.0
8,21.000354403820428
143,21.000354403820428
206,21.000354403820428
269,21.000354403820428
332,45.016521011738824
395,444.4334842067876
396,0.02938078125
399,444.4334842067876
400,0.02938078125
403,444.4334842067876
404,0.02938078125
407,444.4334842067876
408,0.02938078125
409,1775.6744556524031
423,41.748476122296644
424,666.8830299017924
499,1.966515281199669
500,1.966515281199669
501,0.12998674
529,1777.7339368271505
2,1, 1,15, 0,20, 0.00,60.00,WinterDesignDay
7,-3.0
8,20.999827267460404
143,20.999827267460404
206,20.999827267460404
269,20.999827267460404
332,45.01649124268709
395,444.25698653468277
396,0.0292655625
399,444.25698653468277
400,0.0292655625
403,444.25698653468277
404,0.0292655625
407,444.25698653468277
408,0.0292655625
409,1775.0551275177197
423,41.74958619739764
424,666.6499492377083
499,1.9665161618773945
500,1.9665161618773945
501,0.12998674
529,1777.027946138731
2,1, 1,15, 0,21, 0.00,60.00,WinterDesignDay
7,-3.0
8,21.000692161034237
143,21.000692161034237
206,21.000692161034237
269,21.000692161034237
332,45.0164776692723
395,444.42318246586495
396,0.02938078125
399,444.42318246586495
400,0.02938078125
403,444.42318246586495
404,0.02938078125
407,444.42318246586495
408,0.02938078125
409,1775.7271538530654
423,41.74833579128314
424,666.9021196285063
499,1.966515169868362
500,1.966515169868362
501,0.12998674
529,1777.6927298634598
2,1, 1,15, 0,22, 0.00,60.00,WinterDesignDay
7,-3.0
8,20.99990715675878
143,20.99990715675878
206,20.99990715675878
269,20.99990715675878
332,45.016406053876885
395,444.2538273020464
396,0.0292655625
399,444.2538273020464
400,0.0292655625
403,444.2538273020464
404,0.0292655625
407,444.2538273020464
408,0.0292655625
409,1775.0421305385446
423,41.74952492891317
424,666.6436890467082
499,1.9665161132700573
500,1.9665161132700573
501,0.12998674
529,1777.0153092081855
2,1, 1,15, 0,23, 0.00,60.00,WinterDesignDay
7,-3.0
8,21.000131519273296
143,21.000131519273296
206,21.000131519273296
269,21.000131519273296
332,45.016380859705016
395,444.24914909297246
396,0.0292655625
399,444.24914909297246
400,0.0292655625
403,444.24914909297246
404,0.0292655625
407,444.24914909297246
408,0.0292655625
409,1775.1184718726474
423,41.749359232124974
424,666.6719525511255
499,1.9665159818147224
500,1.9665159818147224
501,0.12998674
529,1776.9965963718898
2,1, 1,15, 0,24, 0.00,60.00,WinterDesignDay
7,-3.0
8,21.000378027457717
143,21.000378027457717
206,21.000378027457717
269,21.000378027457717
332,45.016352024551765
395,444.426462984236
396,0.02938078125
399,444.426462984236
400,0.02938078125
403,444.426462984236
404,0.02938078125
407,444.426462984236
408,0.02938078125
409,1775.6462481296137
423,41.74835904972175
424,666.869699735715
499,1.9665151883203276
500,1.9665151883203276
501,0.12998674
529,1777.705851936944
End of Data
 Number of Records Written=         504
