Program Version,EnergyPlus, Version 24.2.0-94a887817b, YMD=2026.04.20 12:10
1,5,Environment Title[],Latitude[deg],Longitude[deg],Time Zone[],Elevation[m]
2,8,Day of Simulation[],Month[],Day of Month[],DST Indicator[1=yes 0=no],Hour[],StartMinute[],EndMinute[],DayType
3,5,Cumulative Day of Simulation[],Month[],Day of Month[],DST Indicator[1=yes 0=no],DayType  ! When Daily Report Variables Requested
4,2,Cumulative Days of Simulation[],Month[]  ! When Monthly Report Variables Requested
5,1,Cumulative Days of Simulation[] ! When Run Period Report Variables Requested
6,1,Calendar Year of Simulation[] ! When Annual Report Variables Requested
7,1,Environment,Site Outdoor Air Drybulb Temperature [C] !Hourly
8,1,Z1,Zone Air Temperature [C] !Hourly
143,1,Z2,Zone Air Temperature [C] !Hourly
206,1,Z3,Zone Air Temperature [C] !Hourly
269,1,Z4,Zone Air Temperature [C] !Hourly
332,1,Z5,Zone Air Temperature [C] !Hourly
395,1,Z6,Zone Air Temperature [C] !Hourly
458,1,Z7,Zone Air Temperature [C] !Hourly
521,1,Z8,Zone Air Temperature [C] !Hourly
584,1,HOT WATER LOOP,Plant Supply Side Outlet Temperature [C] !Hourly
647,1,Z1 RADIATOR,Baseboard Total Heating Rate [W] !Hourly
648,1,Z1 RADIATOR,Baseboard Hot Water Mass Flow Rate [kg/s] !Hourly
651,1,Z2 RADIATOR,Baseboard Total Heating Rate [W] !Hourly
652,1,Z2 RADIATOR,Baseboard Hot Water Mass Flow Rate [kg/s] !Hourly
655,1,Z3 RADIATOR,Baseboard Total Heating Rate [W] !Hourly
656,1,Z3 RADIATOR,Baseboard Hot Water Mass Flow Rate [kg/s] !Hourly
659,1,Z4 RADIATOR,Baseboard Total Heating Rate [W] !Hourly
660,1,Z4 RADIATOR,Baseboard Hot Water Mass Flow Rate [kg/s] !Hourly
663,1,Z5 RADIATOR,Baseboard Total Heating Rate [W] !Hourly
664,1,Z5 RADIATOR,Baseboard Hot Water Mass Flow Rate [kg/s] !Hourly
667,1,Z6 RADIATOR,Baseboard Total Heating Rate [W] !Hourly
668,1,Z6 RADIATOR,Baseboard Hot Water Mass Flow Rate [kg/s] !Hourly
671,1,Z7 RADIATOR,Baseboard Total Heating Rate [W] !Hourly
672,1,Z7 RADIATOR,Baseboard Hot Water Mass Flow Rate [kg/s] !Hourly
675,1,Z8 RADIATOR,Baseboard Total Heating Rate [W] !Hourly
676,1,Z8 RADIATOR,Baseboard Hot Water Mass Flow Rate [kg/s] !Hourly
677,1,HEAT PUMP,Heat Pump Load Side Heat Transfer Rate [W] !Hourly
691,1,HEAT PUMP,Heat Pump Load Side Inlet Temperature [C] !Hourly
692,1,HEAT PUMP,Heat Pump Load Side Outlet Temperature [C] !Hourly
693,1,HEAT PUMP,Heat Pump Electricity Rate [W] !Hourly
768,1,SUPPLY PUMP,Pump Electricity Rate [W] !Hourly
769,1,SUPPLY PUMP,Pump Fluid Heat Gain Rate [W] !Hourly
770,1,SUPPLY PUMP,Pump Mass Flow Rate [kg/s] !Hourly
798,1,Baseboard Total Heating Rate All Zones,PythonPlugin:OutputVariable [W] !Hourly
End of Data Dictionary
1,WINTER DESIGN DAY IN (MID) UK,  53.35,  -2.28,   0.00,  69.00
2,1, 1,15, 0, 1, 0.00,60.00,WinterDesignDay
7,-3.0
8,20.999395676217357
143,20.999395676217357
206,20.999395676217357
269,20.999395676217357
332,21.000180439820245
395,21.000180439820245
458,21.000180439820245
521,21.000180439820245
584,46.032
647,498.34183521257654
648,0.01762846875
651,498.34183521257654
652,0.01762846875
655,498.34183521257654
656,0.01762846875
659,498.34183521257654
660,0.01762846875
663,194.83258383100838
664,0.0019488171386718755
667,194.83258383100838
668,0.0019488171386718755
671,194.83258383100838
672,0.0019488171386718755
675,194.83258383100838
676,0.0019488171386718755
677,2770.594574322069
691,40.93285166765392
692,46.032
693,1066.1980211449577
768,1.96586841912704
769,1.96586841912704
770,0.12998674
798,1993.3673408503062
2,1, 1,15, 0, 2, 0.00,60.00,WinterDesignDay
7,-3.0
8,20.999294579917883
143,20.999294579917883
206,20.999294579917883
269,20.999294579917883
332,20.999729882948138
395,20.999729882948138
458,20.999729882948138
521,20.999729882948138
584,46.032
647,498.3439905878871
648,0.01762846875
651,498.3439905878871
652,0.01762846875
655,498.3439905878871
656,0.01762846875
659,498.3439905878871
660,0.01762846875
663,194.75714512244286
664,0.0019479169921875004
667,194.75714512244286
668,0.0019479169921875004
671,194.75714512244286
672,0.0019479169921875004
675,194.75714512244286
676,0.0019479169921875004
677,2770.3413493286976
691,40.93331771628284
692,46.032
693,1066.1005734745772
768,1.96586878862417
769,1.96586878862417
770,0.12998674
798,1993.3759623515484
2,1, 1,15, 0, 3, 0.00,60.00,WinterDesignDay
7,-3.0
8,21.00009606200934
143,21.00009606200934
206,21.00009606200934
269,21.00009606200934
332,21.000506007200862
395,21.000506007200862
458,21.000506007200862
521,21.000506007200862
584,46.032
647,498.32254878302933
648,0.01762846875
651,498.32254878302933
652,0.01762846875
655,498.32254878302933
656,0.01762846875
659,498.32254878302933
660,0.01762846875
663,194.90896584388545
664,0.0019497172851562503
667,194.90896584388545
668,0.0019497172851562503
671,194.90896584388545
672,0.0019497172851562503
675,194.90896584388545
676,0.0019497172851562503
677,2770.9416504797173
691,40.93221289039403
692,46.032
693,1066.331585223911
768,1.9658679126838141
769,1.9658679126838141
770,0.12998674
798,1993.2901951321173
2,1, 1,15, 0, 4, 0.00,60.00,WinterDesignDay
7,-3.0
8,20.999543085495908
143,20.999543085495908
206,20.999543085495908
269,20.999543085495908
332,20.999788726061382
395,20.999788726061382
458,20.999788726061382
521,20.999788726061382
584,46.032
647,498.3379799023901
648,0.01762846875
651,498.3379799023901
652,0.01762846875
655,498.3379799023901
656,0.01762846875
659,498.3379799023901
660,0.01762846875
663,194.7566946867363
664,0.0019479169921875004
667,194.7566946867363
668,0.0019479169921875004
671,194.7566946867363
672,0.0019479169921875004
675,194.7566946867363
676,0.0019479169921875004
677,2770.3128761729017
691,40.93337011978
692,46.032
693,1066.0896162516597
768,1.965868830167782
769,1.965868830167782
770,0.12998674
798,1993.3519196095604
2,1, 1,15, 0, 5, 0.00,60.00,WinterDesignDay
7,-3.0
8,20.999404393106374
143,20.999404393106374
206,20.999404393106374
269,20.999404393106374
332,21.000178325539295
395,21.000178325539295
458,21.000178325539295
521,21.000178325539295
584,46.032
647,498.3416095084941
648,0.01762846875
651,498.3416095084941
652,0.01762846875
655,498.3416095084941
656,0.01762846875
659,498.3416095084941
660,0.01762846875
663,194.8321560001561
664,0.0019488171386718755
667,194.8321560001561
668,0.0019488171386718755
671,194.8321560001561
672,0.0019488171386718755
675,194.8321560001561
676,0.0019488171386718755
677,2770.591498974286
691,40.93285732768613
692,46.032
693,1066.1968376698474
768,1.9658684236144437
769,1.9658684236144437
770,0.12998674
798,1993.3664380339765
2,1, 1,15, 0, 6, 0.00,60.00,WinterDesignDay
7,-3.0
8,20.99981677855957
143,20.99981677855957
206,20.99981677855957
269,20.99981677855957
332,21.000053767220816
395,21.000053767220816
458,21.000053767220816
521,21.000053767220816
584,46.032
647,498.4904187855999
648,0.017657273437500003
651,498.4904187855999
652,0.017657273437500003
655,498.4904187855999
656,0.017657273437500003
659,498.4904187855999
660,0.017657273437500003
663,194.83471116958685
664,0.0019488171386718755
667,194.83471116958685
668,0.0019488171386718755
671,194.83471116958685
672,0.0019488171386718755
675,194.83471116958685
676,0.0019488171386718755
677,2771.1226309941503
691,40.93187980431318
692,46.032
693,1066.4012313093187
768,1.9658676486085573
769,1.9658676486085573
770,0.12998674
798,1993.9616751423996
2,1, 1,15, 0, 7, 0.00,60.00,WinterDesignDay
7,-3.0
8,21.000197578239327
143,21.000197578239327
206,21.000197578239327
269,21.000197578239327
332,21.000186787208026
395,21.000186787208026
458,21.000186787208026
521,21.000186787208026
584,46.032
647,498.4745902098815
648,0.017657273437500003
651,498.4745902098815
652,0.017657273437500003
655,498.4745902098815
656,0.017657273437500003
659,498.4745902098815
660,0.017657273437500003
663,194.8318012458954
664,0.0019488171386718755
667,194.8318012458954
668,0.0019488171386718755
671,194.8318012458954
672,0.0019488171386718755
675,194.8318012458954
676,0.0019488171386718755
677,2771.045052138857
691,40.93202258452877
692,46.032
693,1066.3713769153333
768,1.9658677618065514
769,1.9658677618065514
770,0.12998674
798,1993.898360839526
2,1, 1,15, 0, 8, 0.00,60.00,WinterDesignDay
7,-3.0
8,20.999531567552065
143,20.999531567552065
206,20.999531567552065
269,20.999531567552065
332,21.000108126117652
395,21.000108126117652
458,21.000108126117652
521,21.000108126117652
584,46.032
647,498.33914728690854
648,0.01762846875
651,498.33914728690854
652,0.01762846875
655,498.33914728690854
656,0.01762846875
659,498.33914728690854
660,0.01762846875
663,194.83387378798778
664,0.0019488171386718755
667,194.83387378798778
668,0.0019488171386718755
671,194.83387378798778
672,0.0019488171386718755
675,194.83387378798778
676,0.0019488171386718755
677,2770.5882044038635
691,40.93286339118724
692,46.032
693,1066.1955698320708
768,1.9658684284186378
769,1.9658684284186378
770,0.12998674
798,1993.3565891476342
2,1, 1,15, 0, 9, 0.00,60.00,WinterDesignDay
7,-3.0
8,20.999389673989562
143,20.999389673989562
206,20.999389673989562
269,20.999389673989562
332,21.000237713301814
395,21.000237713301814
458,21.000237713301814
521,21.000237713301814
584,46.032
647,498.3419579652306
648,0.01762846875
651,498.3419579652306
652,0.01762846875
655,498.3419579652306
656,0.01762846875
659,498.3419579652306
660,0.01762846875
663,194.83135990122054
664,0.0019488171386718755
667,194.83135990122054
668,0.0019488171386718755
671,194.83135990122054
672,0.0019488171386718755
675,194.83135990122054
676,0.0019488171386718755
677,2770.590521195211
691,40.93285912724229
692,46.032
693,1066.1964613946157
768,1.965868425041204
769,1.965868425041204
770,0.12998674
798,1993.3678318609225
2,1, 1,15, 0,10, 0.00,60.00,WinterDesignDay
7,-3.0
8,20.99928916435599
143,20.99928916435599
206,20.99928916435599
269,20.99928916435599
332,20.999899193815803
395,20.999899193815803
458,20.999899193815803
521,20.999899193815803
584,46.032
647,498.34410115803314
648,0.01762846875
651,498.34410115803314
652,0.01762846875
655,498.34410115803314
656,0.01762846875
659,498.34410115803314
660,0.01762846875
663,194.83523467493995
664,0.0019488171386718755
667,194.83523467493995
668,0.0019488171386718755
671,194.83523467493995
672,0.0019488171386718755
675,194.83523467493995
676,0.0019488171386718755
677,2770.5737324284837
691,40.93289002617375
692,46.032
693,1066.190000633439
768,1.9658684495411602
769,1.9658684495411602
770,0.12998674
798,1993.3764046321326
2,1, 1,15, 0,11, 0.00,60.00,WinterDesignDay
7,-3.0
8,21.00032187936451
143,21.00032187936451
206,21.00032187936451
269,21.00032187936451
332,21.00028220502518
395,21.00028220502518
458,21.00028220502518
521,21.00028220502518
584,46.032
647,498.4718649077136
648,0.017657273437500003
651,498.4718649077136
652,0.017657273437500003
655,498.4718649077136
656,0.017657273437500003
659,498.4718649077136
660,0.017657273437500003
663,194.83247053342222
664,0.0019488171386718755
667,194.83247053342222
668,0.0019488171386718755
671,194.83247053342222
672,0.0019488171386718755
675,194.83247053342222
676,0.0019488171386718755
677,2771.156602056837
691,40.931817282178315
692,46.032
693,1066.414304272122
768,1.9658675990352092
769,1.9658675990352092
770,0.12998674
798,1993.8874596308544
2,1, 1,15, 0,12, 0.00,60.00,WinterDesignDay
7,-3.0
8,20.999507067262012
143,20.999507067262012
206,20.999507067262012
269,20.999507067262012
332,21.000164374627317
395,21.000164374627317
458,21.000164374627317
521,21.000164374627317
584,46.032
647,498.33979799933746
648,0.01762846875
651,498.33979799933746
652,0.01762846875
655,498.33979799933746
656,0.01762846875
659,498.33979799933746
660,0.01762846875
663,194.83280054378753
664,0.0019488171386718755
667,194.83280054378753
668,0.0019488171386718755
671,194.83280054378753
672,0.0019488171386718755
675,194.83280054378753
676,0.0019488171386718755
677,2770.587017195383
691,40.93286557618832
692,46.032
693,1066.1951129628683
768,1.965868430152303
769,1.965868430152303
770,0.12998674
798,1993.3591919973499
2,1, 1,15, 0,13, 0.00,60.00,WinterDesignDay
7,-3.0
8,20.999365860078157
143,20.999365860078157
206,20.999365860078157
269,20.999365860078157
332,20.999808587202114
395,20.999808587202114
458,20.999808587202114
521,20.999808587202114
584,46.032
647,498.34245700715087
648,0.01762846875
651,498.34245700715087
652,0.01762846875
655,498.34245700715087
656,0.01762846875
659,498.34245700715087
660,0.01762846875
663,194.75607468240065
664,0.0019479169921875004
667,194.75607468240065
668,0.0019479169921875004
671,194.75607468240065
672,0.0019479169921875004
675,194.75607468240065
676,0.0019479169921875004
677,2770.3302544287612
691,40.93333813592166
692,46.032
693,1066.096303863835
768,1.965868804809906
769,1.965868804809906
770,0.12998674
798,1993.3698280286035
2,1, 1,15, 0,14, 0.00,60.00,WinterDesignDay
7,-3.0
8,20.9996510078094
143,20.9996510078094
206,20.9996510078094
269,20.9996510078094
332,21.000176632182054
395,21.000176632182054
458,21.000176632182054
521,21.000176632182054
584,46.032
647,498.3358997363049
648,0.01762846875
651,498.3358997363049
652,0.01762846875
655,498.3358997363049
656,0.01762846875
659,498.3358997363049
660,0.01762846875
663,194.91245907055324
664,0.0019497172851562503
667,194.91245907055324
668,0.0019497172851562503
671,194.91245907055324
672,0.0019497172851562503
675,194.91245907055324
676,0.0019497172851562503
677,2770.8903095180876
691,40.93230738100672
692,46.032
693,1066.3118278648947
768,1.9658679875983824
769,1.9658679875983824
770,0.12998674
798,1993.3435989452196
2,1, 1,15, 0,15, 0.00,60.00,WinterDesignDay
7,-3.0
8,20.999892995308535
143,20.999892995308535
206,20.999892995308535
269,20.999892995308535
332,21.000068557423376
395,21.000068557423376
458,21.000068557423376
521,21.000068557423376
584,46.032
647,498.32661009073547
648,0.01762846875
651,498.32661009073547
652,0.01762846875
655,498.32661009073547
656,0.01762846875
659,498.32661009073547
660,0.01762846875
663,194.75354094029774
664,0.0019479169921875004
667,194.75354094029774
668,0.0019479169921875004
671,194.75354094029774
672,0.0019479169921875004
675,194.75354094029774
676,0.0019479169921875004
677,2770.373394131314
691,40.93325873933856
692,46.032
693,1066.1129051615928
768,1.965868741866419
769,1.965868741866419
770,0.12998674
798,1993.3064403629419
2,1, 1,15, 0,16, 0.00,60.00,WinterDesignDay
7,-3.0
8,20.999488455572017
143,20.999488455572017
206,20.999488455572017
269,20.999488455572017
332,21.00023938290023
395,21.00023938290023
458,21.00023938290023
521,21.00023938290023
584,46.032
647,498.3398583781978
648,0.01762846875
651,498.3398583781978
652,0.01762846875
655,498.3398583781978
656,0.01762846875
659,498.3398583781978
660,0.01762846875
663,194.91200095154142
664,0.0019497172851562503
667,194.91200095154142
668,0.0019497172851562503
671,194.91200095154142
672,0.0019497172851562503
675,194.91200095154142
676,0.0019497172851562503
677,2770.8247583680063
691,40.93242802479948
692,46.032
693,1066.2866020497759
768,1.9658680832503048
769,1.9658680832503048
770,0.12998674
798,1993.3594335127912
2,1, 1,15, 0,17, 0.00,60.00,WinterDesignDay
7,-3.0
8,20.999357164773937
143,20.999357164773937
206,20.999357164773937
269,20.999357164773937
332,21.000182354143693
395,21.000182354143693
458,21.000182354143693
521,21.000182354143693
584,46.032
647,498.342671594798
648,0.01762846875
651,498.342671594798
652,0.01762846875
655,498.342671594798
656,0.01762846875
659,498.342671594798
660,0.01762846875
663,194.8325681174749
664,0.0019488171386718755
667,194.8325681174749
668,0.0019488171386718755
671,194.8325681174749
672,0.0019488171386718755
675,194.8325681174749
676,0.0019488171386718755
677,2770.5976674507615
691,40.93284597489679
692,46.032
693,1066.1992114626325
768,1.9658684146118581
769,1.9658684146118581
770,0.12998674
798,1993.370686379192
2,1, 1,15, 0,18, 0.00,60.00,WinterDesignDay
7,-3.0
8,21.000509963324124
143,21.000509963324124
206,21.000509963324124
269,21.000509963324124
332,20.99973903244792
395,20.99973903244792
458,20.99973903244792
521,20.99973903244792
584,46.032
647,498.6300650598676
648,0.017686078125
651,498.6300650598676
652,0.017686078125
655,498.6300650598676
656,0.017686078125
659,498.6300650598676
660,0.017686078125
663,194.757061534861
664,0.0019479169921875004
667,194.757061534861
668,0.0019479169921875004
671,194.757061534861
672,0.0019479169921875004
675,194.757061534861
676,0.0019479169921875004
677,2771.3345761272703
691,40.93148972931552
692,46.032
693,1066.482793398416
768,1.96586733934168
769,1.96586733934168
770,0.12998674
798,1994.5202602394704
2,1, 1,15, 0,19, 0.00,60.00,WinterDesignDay
7,-3.0
8,20.999645603872157
143,20.999645603872157
206,20.999645603872157
269,20.999645603872157
332,21.000513903152537
395,21.000513903152537
458,21.000513903152537
521,21.000513903152537
584,46.032
647,498.33226991511276
648,0.01762846875
651,498.33226991511276
652,0.01762846875
655,498.33226991511276
656,0.01762846875
659,498.33226991511276
660,0.01762846875
663,194.90890197630395
664,0.0019497172851562503
667,194.90890197630395
668,0.0019497172851562503
671,194.90890197630395
672,0.0019497172851562503
675,194.90890197630395
676,0.0019497172851562503
677,2770.8193668442523
691,40.93243794764406
692,46.032
693,1066.2845272489333
768,1.965868091117931
769,1.965868091117931
770,0.12998674
798,1993.329079660451
2,1, 1,15, 0,20, 0.00,60.00,WinterDesignDay
7,-3.0
8,20.99945996731516
143,20.99945996731516
206,20.99945996731516
269,20.99945996731516
332,20.999795739530335
395,20.999795739530335
458,20.999795739530335
521,20.999795739530335
584,46.032
647,498.34034672849697
648,0.01762846875
651,498.34034672849697
652,0.01762846875
655,498.34034672849697
656,0.01762846875
659,498.34034672849697
660,0.01762846875
663,194.75663865093068
664,0.0019479169921875004
667,194.75663865093068
668,0.0019479169921875004
671,194.75663865093068
672,0.0019479169921875004
675,194.75663865093068
676,0.0019479169921875004
677,2770.3243925550732
691,40.93334892442306
692,46.032
693,1066.094048059906
768,1.9658688133668503
769,1.9658688133668503
770,0.12998674
798,1993.3613869139879
2,1, 1,15, 0,21, 0.00,60.00,WinterDesignDay
7,-3.0
8,20.99934206745623
143,20.99934206745623
206,20.99934206745623
269,20.99934206745623
332,21.00018467122212
395,21.00018467122212
458,21.00018467122212
521,21.00018467122212
584,46.032
647,498.34298449372926
648,0.01762846875
651,498.34298449372926
652,0.01762846875
655,498.34298449372926
656,0.01762846875
659,498.34298449372926
660,0.01762846875
663,194.83210539407713
664,0.0019488171386718755
667,194.83210539407713
668,0.0019488171386718755
671,194.83210539407713
672,0.0019488171386718755
675,194.83210539407713
676,0.0019488171386718755
677,2770.5969270699647
691,40.93284733753265
692,46.032
693,1066.198926544533
768,1.9658684156922017
769,1.9658684156922017
770,0.12998674
798,1993.371937974917
2,1, 1,15, 0,22, 0.00,60.00,WinterDesignDay
7,-3.0
8,20.99963465852889
143,20.99963465852889
206,20.99963465852889
269,20.99963465852889
332,21.000059536612035
395,21.000059536612035
458,21.000059536612035
521,21.000059536612035
584,46.032
647,498.33625628112407
648,0.01762846875
651,498.33625628112407
652,0.01762846875
655,498.33625628112407
656,0.01762846875
659,498.33625628112407
660,0.01762846875
663,194.8346651906693
664,0.0019488171386718755
667,194.8346651906693
668,0.0019488171386718755
671,194.8346651906693
672,0.0019488171386718755
675,194.8346651906693
676,0.0019488171386718755
677,2770.6604623253957
691,40.9327304038987
692,46.032
693,1066.2233765901083
768,1.9658683229817995
769,1.9658683229817995
770,0.12998674
798,1993.3450251244963
2,1, 1,15, 0,23, 0.00,60.00,WinterDesignDay
7,-3.0
8,20.999880208805976
143,20.999880208805976
206,20.999880208805976
269,20.999880208805976
332,21.00019203949727
395,21.00019203949727
458,21.00019203949727
521,21.00019203949727
584,46.032
647,498.3268765229742
648,0.01762846875
651,498.3268765229742
652,0.01762846875
655,498.3268765229742
656,0.01762846875
659,498.3268765229742
660,0.01762846875
663,194.83175939642055
664,0.0019488171386718755
667,194.83175939642055
668,0.0019488171386718755
671,194.83175939642055
672,0.0019488171386718755
675,194.83175939642055
676,0.0019488171386718755
677,2770.60805469706
691,40.93282685766105
692,46.032
693,1066.203208749551
768,1.9658683994554107
769,1.9658683994554107
770,0.12998674
798,1993.3075060918968
2,1, 1,15, 0,24, 0.00,60.00,WinterDesignDay
7,-3.0
8,20.99947768751535
143,20.99947768751535
206,20.99947768751535
269,20.99947768751535
332,21.000172474953843
395,21.000172474953843
458,21.000172474953843
521,21.000172474953843
584,46.032
647,498.3400822481232
648,0.01762846875
651,498.3400822481232
652,0.01762846875
655,498.3400822481232
656,0.01762846875
659,498.3400822481232
660,0.01762846875
663,194.83267676152306
664,0.0019488171386718755
667,194.83267676152306
668,0.0019488171386718755
671,194.83267676152306
672,0.0019488171386718755
675,194.83267676152306
676,0.0019488171386718755
677,2770.588033045177
691,40.932863706564795
692,46.032
693,1066.1955038887186
768,1.965868428670007
769,1.965868428670007
770,0.12998674
798,1993.360328992493
End of Data
 Number of Records Written=         816
