Program Version,EnergyPlus, Version 24.2.0-94a887817b, YMD=2026.05.15 11:04
1,5,Environment Title[],Latitude[deg],Longitude[deg],Time Zone[],Elevation[m]
2,8,Day of Simulation[],Month[],Day of Month[],DST Indicator[1=yes 0=no],Hour[],StartMinute[],EndMinute[],DayType
3,5,Cumulative Day of Simulation[],Month[],Day of Month[],DST Indicator[1=yes 0=no],DayType  ! When Daily Report Variables Requested
4,2,Cumulative Days of Simulation[],Month[]  ! When Monthly Report Variables Requested
5,1,Cumulative Days of Simulation[] ! When Run Period Report Variables Requested
6,1,Calendar Year of Simulation[] ! When Annual Report Variables Requested
7,1,Environment,Site Outdoor Air Drybulb Temperature [C] !Hourly
8,1,Z1,Zone Air Temperature [C] !Hourly
143,1,Z2,Zone Air Temperature [C] !Hourly
206,1,Z3,Zone Air Temperature [C] !Hourly
269,1,Z4,Zone Air Temperature [C] !Hourly
332,1,Z5,Zone Air Temperature [C] !Hourly
395,1,Z6,Zone Air Temperature [C] !Hourly
458,1,Z7,Zone Air Temperature [C] !Hourly
521,1,Z8,Zone Air Temperature [C] !Hourly
584,1,HOT WATER LOOP,Plant Supply Side Outlet Temperature [C] !Hourly
647,1,Z1 RADIATOR,Baseboard Total Heating Rate [W] !Hourly
648,1,Z1 RADIATOR,Baseboard Hot Water Mass Flow Rate [kg/s] !Hourly
651,1,Z2 RADIATOR,Baseboard Total Heating Rate [W] !Hourly
652,1,Z2 RADIATOR,Baseboard Hot Water Mass Flow Rate [kg/s] !Hourly
655,1,Z3 RADIATOR,Baseboard Total Heating Rate [W] !Hourly
656,1,Z3 RADIATOR,Baseboard Hot Water Mass Flow Rate [kg/s] !Hourly
659,1,Z4 RADIATOR,Baseboard Total Heating Rate [W] !Hourly
660,1,Z4 RADIATOR,Baseboard Hot Water Mass Flow Rate [kg/s] !Hourly
663,1,Z5 RADIATOR,Baseboard Total Heating Rate [W] !Hourly
664,1,Z5 RADIATOR,Baseboard Hot Water Mass Flow Rate [kg/s] !Hourly
667,1,Z6 RADIATOR,Baseboard Total Heating Rate [W] !Hourly
668,1,Z6 RADIATOR,Baseboard Hot Water Mass Flow Rate [kg/s] !Hourly
671,1,Z7 RADIATOR,Baseboard Total Heating Rate [W] !Hourly
672,1,Z7 RADIATOR,Baseboard Hot Water Mass Flow Rate [kg/s] !Hourly
675,1,Z8 RADIATOR,Baseboard Total Heating Rate [W] !Hourly
676,1,Z8 RADIATOR,Baseboard Hot Water Mass Flow Rate [kg/s] !Hourly
677,1,HEAT PUMP,Heat Pump Load Side Heat Transfer Rate [W] !Hourly
691,1,HEAT PUMP,Heat Pump Load Side Inlet Temperature [C] !Hourly
692,1,HEAT PUMP,Heat Pump Load Side Outlet Temperature [C] !Hourly
693,1,HEAT PUMP,Heat Pump Electricity Rate [W] !Hourly
768,1,SUPPLY PUMP,Pump Electricity Rate [W] !Hourly
769,1,SUPPLY PUMP,Pump Fluid Heat Gain Rate [W] !Hourly
770,1,SUPPLY PUMP,Pump Mass Flow Rate [kg/s] !Hourly
798,1,Baseboard Total Heating Rate All Zones,PythonPlugin:OutputVariable [W] !Hourly
End of Data Dictionary
1,WINTER DESIGN DAY IN (MID) UK,  53.35,  -2.28,   0.00,  69.00
2,1, 1,15, 0, 1, 0.00,60.00,WinterDesignDay
7,-3.0
8,20.9998094808718
143,20.9998094808718
206,20.9998094808718
269,20.9998094808718
332,21.000251396726917
395,21.000251396726917
458,21.000251396726917
521,21.000251396726917
584,46.032
647,253.4650177926605
648,0.004731169921875
651,253.4650177926605
652,0.004731169921875
655,253.4650177926605
656,0.004731169921875
659,253.4650177926605
660,0.004731169921875
663,444.79464721780124
664,0.00951994921875
667,444.79464721780124
668,0.00951994921875
671,444.79464721780124
672,0.00951994921875
675,444.79464721780124
676,0.00951994921875
677,2790.9385492552165
691,40.895409543564355
692,46.032
693,1074.0269204061397
768,1.9658387344351942
769,1.9658387344351942
770,0.12998674
798,1013.860071170642
2,1, 1,15, 0, 2, 0.00,60.00,WinterDesignDay
7,-3.0
8,21.000142752742313
143,21.000142752742313
206,21.000142752742313
269,21.000142752742313
332,20.99949556855645
395,20.99949556855645
458,20.99949556855645
521,20.99949556855645
584,46.032
647,253.5802855867996
648,0.00473837109375
651,253.5802855867996
652,0.00473837109375
655,253.5802855867996
656,0.00473837109375
659,253.5802855867996
660,0.00473837109375
663,444.6458773478662
664,0.009505546875
667,444.6458773478662
668,0.009505546875
671,444.6458773478662
672,0.009505546875
675,444.6458773478662
676,0.009505546875
677,2790.7371618691986
691,40.89578018752759
692,46.032
693,1073.9494212171767
768,1.9658390282825515
769,1.9658390282825515
770,0.12998674
798,1014.3211423471984
2,1, 1,15, 0, 3, 0.00,60.00,WinterDesignDay
7,-3.0
8,20.999804752205844
143,20.999804752205844
206,20.999804752205844
269,20.999804752205844
332,21.000287169948685
395,21.000287169948685
458,21.000287169948685
521,21.000287169948685
584,46.032
647,253.46666983517053
648,0.004731169921875
651,253.46666983517053
652,0.004731169921875
655,253.46666983517053
656,0.004731169921875
659,253.46666983517053
660,0.004731169921875
663,444.7890502052584
664,0.00951994921875
667,444.7890502052584
668,0.00951994921875
671,444.7890502052584
672,0.00951994921875
675,444.7890502052584
676,0.00951994921875
677,2790.9192677616265
691,40.89544503024176
692,46.032
693,1074.0195003777815
768,1.9658387625691818
769,1.9658387625691818
770,0.12998674
798,1013.8666793406821
2,1, 1,15, 0, 4, 0.00,60.00,WinterDesignDay
7,-3.0
8,20.999943472363256
143,20.999943472363256
206,20.999943472363256
269,20.999943472363256
332,21.00025161896099
395,21.00025161896099
458,21.00025161896099
521,21.00025161896099
584,46.032
647,253.4637522020191
648,0.004731169921875
651,253.4637522020191
652,0.004731169921875
655,253.4637522020191
656,0.004731169921875
659,253.4637522020191
660,0.004731169921875
663,444.7946046834941
664,0.00951994921875
667,444.7946046834941
668,0.00951994921875
671,444.7946046834941
672,0.00951994921875
675,444.7946046834941
676,0.00951994921875
677,2790.993981594585
691,40.895307522964345
692,46.032
693,1074.048252235448
768,1.9658386535544439
769,1.9658386535544439
770,0.12998674
798,1013.8550088080764
2,1, 1,15, 0, 5, 0.00,60.00,WinterDesignDay
7,-3.0
8,20.99981197787661
143,20.99981197787661
206,20.99981197787661
269,20.99981197787661
332,20.999493728221196
395,20.999493728221196
458,20.999493728221196
521,20.999493728221196
584,46.032
647,253.4650430619672
648,0.004731169921875
651,253.4650430619672
652,0.004731169921875
655,253.4650430619672
656,0.004731169921875
659,253.4650430619672
660,0.004731169921875
663,444.6459075207438
664,0.009505546875
667,444.6459075207438
668,0.009505546875
671,444.6459075207438
672,0.009505546875
675,444.6459075207438
676,0.009505546875
677,2790.3348042841817
691,40.8965207076411
692,46.032
693,1073.7945833838417
768,1.9658396153696125
769,1.9658396153696125
770,0.12998674
798,1013.8601722478688
2,1, 1,15, 0, 6, 0.00,60.00,WinterDesignDay
7,-3.0
8,21.00013877941698
143,21.00013877941698
206,21.00013877941698
269,21.00013877941698
332,21.00028452024145
395,21.00028452024145
458,21.00028452024145
521,21.00028452024145
584,46.032
647,253.5803063389768
648,0.00473837109375
651,253.5803063389768
652,0.00473837109375
655,253.5803063389768
656,0.00473837109375
659,253.5803063389768
660,0.00473837109375
663,444.7891067066275
664,0.00951994921875
667,444.7891067066275
668,0.00951994921875
671,444.7891067066275
672,0.00951994921875
675,444.7891067066275
676,0.00951994921875
677,2791.3150058591054
691,40.89471669298213
692,46.032
693,1074.1717908573537
768,1.9658381851424287
769,1.9658381851424287
770,0.12998674
798,1014.3212253559072
2,1, 1,15, 0, 7, 0.00,60.00,WinterDesignDay
7,-3.0
8,20.999806253688774
143,20.999806253688774
206,20.999806253688774
269,20.999806253688774
332,21.000255672713557
395,21.000255672713557
458,21.000255672713557
521,21.000255672713557
584,46.032
647,253.46662918948854
648,0.004731169921875
651,253.46662918948854
652,0.004731169921875
655,253.46662918948854
656,0.004731169921875
659,253.46662918948854
660,0.004731169921875
663,444.7945641708701
664,0.00951994921875
667,444.7945641708701
668,0.00951994921875
671,444.7945641708701
672,0.00951994921875
675,444.7945641708701
676,0.00951994921875
677,2790.9452052527017
691,40.89539729351564
692,46.032
693,1074.029481809895
768,1.9658387247232443
769,1.9658387247232443
770,0.12998674
798,1013.8665167579542
2,1, 1,15, 0, 8, 0.00,60.00,WinterDesignDay
7,-3.0
8,20.99994673003
143,20.99994673003
206,20.99994673003
269,20.99994673003
332,20.999493951384693
395,20.999493951384693
458,20.999493951384693
521,20.999493951384693
584,46.032
647,253.46376470510452
648,0.004731169921875
651,253.46376470510452
652,0.004731169921875
655,253.46376470510452
656,0.004731169921875
659,253.46376470510452
660,0.004731169921875
663,444.6458652782852
664,0.009505546875
667,444.6458652782852
668,0.009505546875
671,444.6458652782852
672,0.009505546875
675,444.6458652782852
676,0.009505546875
677,2790.390186363712
691,40.89641877954195
692,46.032
693,1073.8158958718357
768,1.965839534560574
769,1.965839534560574
770,0.12998674
798,1013.8550588204181
2,1, 1,15, 0, 9, 0.00,60.00,WinterDesignDay
7,-3.0
8,20.999808941817165
143,20.999808941817165
206,20.999808941817165
269,20.999808941817165
332,21.000282735810362
395,21.000282735810362
458,21.000282735810362
521,21.000282735810362
584,46.032
647,253.46505669127822
648,0.004731169921875
651,253.46505669127822
652,0.004731169921875
655,253.46505669127822
656,0.004731169921875
659,253.46505669127822
660,0.004731169921875
663,444.78913608497163
664,0.00951994921875
667,444.78913608497163
668,0.00951994921875
671,444.78913608497163
672,0.00951994921875
675,444.78913608497163
676,0.00951994921875
677,2790.9126181805505
691,40.895457268481366
692,46.032
693,1074.0169414432298
768,1.9658387722716277
769,1.9658387722716277
770,0.12998674
798,1013.8602267651129
2,1, 1,15, 0,10, 0.00,60.00,WinterDesignDay
7,-3.0
8,21.000140104573436
143,21.000140104573436
206,21.000140104573436
269,21.000140104573436
332,21.000253123655966
395,21.000253123655966
458,21.000253123655966
521,21.000253123655966
584,46.032
647,253.5802638597322
648,0.00473837109375
651,253.5802638597322
652,0.00473837109375
655,253.5802638597322
656,0.00473837109375
659,253.5802638597322
660,0.00473837109375
663,444.7946190763529
664,0.00951994921875
667,444.7946190763529
668,0.00951994921875
671,444.7946190763529
672,0.00951994921875
675,444.7946190763529
676,0.00951994921875
677,2791.340927620553
691,40.894668985205655
692,46.032
693,1074.181766236291
768,1.965838147317784
769,1.965838147317784
770,0.12998674
798,1014.3210554389289
2,1, 1,15, 0,11, 0.00,60.00,WinterDesignDay
7,-3.0
8,20.999809349679225
143,20.999809349679225
206,20.999809349679225
269,20.999809349679225
332,20.999498113867897
395,20.999498113867897
458,20.999498113867897
521,20.999498113867897
584,46.032
647,253.4666419773772
648,0.004731169921875
651,253.4666419773772
652,0.004731169921875
655,253.4666419773772
656,0.004731169921875
659,253.4666419773772
660,0.004731169921875
663,444.6458228312293
664,0.009505546875
667,444.6458228312293
668,0.009505546875
671,444.6458228312293
672,0.009505546875
675,444.6458228312293
676,0.009505546875
677,2790.341404024844
691,40.89650856113042
692,46.032
693,1073.7971231384845
768,1.9658396057398138
769,1.9658396057398138
770,0.12998674
798,1013.8665679095088
2,1, 1,15, 0,12, 0.00,60.00,WinterDesignDay
7,-3.0
8,20.99994287190669
143,20.99994287190669
206,20.99994287190669
269,20.99994287190669
332,21.000283049232802
395,21.000283049232802
458,21.000283049232802
521,21.000283049232802
584,46.032
647,253.4637878347963
648,0.004731169921875
651,253.4637878347963
652,0.004731169921875
655,253.4637878347963
656,0.004731169921875
659,253.4637878347963
660,0.004731169921875
663,444.78909205088075
664,0.00951994921875
667,444.78909205088075
668,0.00951994921875
671,444.78909205088075
672,0.00951994921875
675,444.78909205088075
676,0.00951994921875
677,2790.9680299246706
691,40.89535528578594
692,46.032
693,1074.0382653469426
768,1.965838691419321
769,1.965838691419321
770,0.12998674
798,1013.8551513391852
2,1, 1,15, 0,13, 0.00,60.00,WinterDesignDay
7,-3.0
8,20.999809466599217
143,20.999809466599217
206,20.999809466599217
269,20.999809466599217
332,21.000251383547138
395,21.000251383547138
458,21.000251383547138
521,21.000251383547138
584,46.032
647,253.46501793955966
648,0.004731169921875
651,253.46501793955966
652,0.004731169921875
655,253.46501793955966
656,0.004731169921875
659,253.46501793955966
660,0.004731169921875
663,444.79464745565156
664,0.00951994921875
667,444.79464745565156
668,0.00951994921875
671,444.79464745565156
672,0.00951994921875
675,444.79464745565156
676,0.00951994921875
677,2790.938550797285
691,40.89540954072625
692,46.032
693,1074.0269209995686
768,1.965838734432944
769,1.965838734432944
770,0.12998674
798,1013.8600717582386
2,1, 1,15, 0,14, 0.00,60.00,WinterDesignDay
7,-3.0
8,21.000142739304625
143,21.000142739304625
206,21.000142739304625
269,21.000142739304625
332,20.999495556168576
395,20.999495556168576
458,20.999495556168576
521,20.999495556168576
584,46.032
647,253.58028572481845
648,0.00473837109375
651,253.58028572481845
652,0.00473837109375
655,253.58028572481845
656,0.00473837109375
659,253.58028572481845
660,0.00473837109375
663,444.6458775713461
664,0.009505546875
667,444.6458775713461
668,0.009505546875
671,444.6458775713461
672,0.009505546875
675,444.6458775713461
676,0.009505546875
677,2790.7371633180437
691,40.89578018486107
692,46.032
693,1073.9494217747306
768,1.9658390282804374
769,1.9658390282804374
770,0.12998674
798,1014.3211428992738
2,1, 1,15, 0,15, 0.00,60.00,WinterDesignDay
7,-3.0
8,20.999804739566912
143,20.999804739566912
206,20.999804739566912
269,20.999804739566912
332,21.000287158306257
395,21.000287158306257
458,21.000287158306257
521,21.000287158306257
584,46.032
647,253.46666996505766
648,0.004731169921875
651,253.46666996505766
652,0.004731169921875
655,253.46666996505766
656,0.004731169921875
659,253.46666996505766
660,0.004731169921875
663,444.7890504153689
664,0.00951994921875
667,444.7890504153689
668,0.00951994921875
671,444.7890504153689
672,0.00951994921875
675,444.7890504153689
676,0.00951994921875
677,2790.9192691241587
691,40.89544502773409
692,46.032
693,1074.01950090212
768,1.9658387625671936
769,1.9658387625671936
770,0.12998674
798,1013.8666798602306
2,1, 1,15, 0,16, 0.00,60.00,WinterDesignDay
7,-3.0
8,20.999943460502713
143,20.999943460502713
206,20.999943460502713
269,20.999943460502713
332,21.000251608018317
395,21.000251608018317
458,21.000251608018317
521,21.000251608018317
584,46.032
647,253.46375232417896
648,0.004731169921875
651,253.46375232417896
652,0.004731169921875
655,253.46375232417896
656,0.004731169921875
659,253.46375232417896
660,0.004731169921875
663,444.79460488097243
664,0.00951994921875
667,444.79460488097243
668,0.00951994921875
671,444.79460488097243
672,0.00951994921875
675,444.79460488097243
676,0.00951994921875
677,2790.9939828756646
691,40.89530752060658
692,46.032
693,1074.0482527284414
768,1.9658386535525745
769,1.9658386535525745
770,0.12998674
798,1013.8550092967158
2,1, 1,15, 0,17, 0.00,60.00,WinterDesignDay
7,-3.0
8,20.999811966736523
143,20.999811966736523
206,20.999811966736523
269,20.999811966736523
332,20.999493717936254
395,20.999493717936254
458,20.999493717936254
521,20.999493717936254
584,46.032
647,253.46504317662652
648,0.004731169921875
651,253.46504317662652
652,0.004731169921875
655,253.46504317662652
656,0.004731169921875
659,253.46504317662652
660,0.004731169921875
663,444.64590770628786
664,0.009505546875
667,444.64590770628786
668,0.009505546875
671,444.64590770628786
672,0.009505546875
675,444.64590770628786
676,0.009505546875
677,2790.3348054873904
691,40.89652070542665
692,46.032
693,1073.7945838468681
768,1.965839615367857
769,1.965839615367857
770,0.12998674
798,1013.8601727065061
2,1, 1,15, 0,18, 0.00,60.00,WinterDesignDay
7,-3.0
8,21.000138768928945
143,21.000138768928945
206,21.000138768928945
269,21.000138768928945
332,21.00028451057578
395,21.00028451057578
458,21.00028451057578
521,21.00028451057578
584,46.032
647,253.58030644670066
648,0.00473837109375
651,253.58030644670066
652,0.00473837109375
655,253.58030644670066
656,0.00473837109375
659,253.58030644670066
660,0.00473837109375
663,444.78910688106475
664,0.00951994921875
667,444.78910688106475
668,0.00951994921875
671,444.78910688106475
672,0.00951994921875
675,444.78910688106475
676,0.00951994921875
677,2791.315006989974
691,40.89471669090082
692,46.032
693,1074.171791292542
768,1.9658381851407785
769,1.9658381851407785
770,0.12998674
798,1014.3212257868026
2,1, 1,15, 0,19, 0.00,60.00,WinterDesignDay
7,-3.0
8,20.999806243824608
143,20.999806243824608
206,20.999806243824608
269,20.999806243824608
332,21.00025566362974
395,21.00025566362974
458,21.00025566362974
521,21.00025566362974
584,46.032
647,253.4666292908613
648,0.004731169921875
651,253.4666292908613
652,0.004731169921875
655,253.4666292908613
656,0.004731169921875
659,253.4666292908613
660,0.004731169921875
663,444.7945643348075
664,0.00951994921875
667,444.7945643348075
668,0.00951994921875
671,444.7945643348075
672,0.00951994921875
675,444.7945643348075
676,0.00951994921875
677,2790.945206315928
691,40.89539729155883
692,46.032
693,1074.0294822190526
768,1.9658387247216929
769,1.9658387247216929
770,0.12998674
798,1013.8665171634452
2,1, 1,15, 0,20, 0.00,60.00,WinterDesignDay
7,-3.0
8,20.999946720773767
143,20.999946720773767
206,20.999946720773767
269,20.999946720773767
332,20.99949394284687
395,20.99949394284687
458,20.99949394284687
521,20.99949394284687
584,46.032
647,253.46376480044208
648,0.004731169921875
651,253.46376480044208
652,0.004731169921875
655,253.46376480044208
656,0.004731169921875
659,253.46376480044208
660,0.004731169921875
663,444.64586543230837
664,0.009505546875
667,444.64586543230837
668,0.009505546875
671,444.64586543230837
672,0.009505546875
675,444.64586543230837
676,0.009505546875
677,2790.39018736313
691,40.89641877770257
692,46.032
693,1073.8158962564382
768,1.9658395345591153
769,1.9658395345591153
770,0.12998674
798,1013.8550592017683
2,1, 1,15, 0,21, 0.00,60.00,WinterDesignDay
7,-3.0
8,20.999808933123557
143,20.999808933123557
206,20.999808933123557
269,20.999808933123557
332,21.000282727785876
395,21.000282727785876
458,21.000282727785876
521,21.000282727785876
584,46.032
647,253.46505678075823
648,0.004731169921875
651,253.46505678075823
652,0.004731169921875
655,253.46505678075823
656,0.004731169921875
659,253.46505678075823
660,0.004731169921875
663,444.78913622978615
664,0.00951994921875
667,444.78913622978615
668,0.00951994921875
671,444.78913622978615
672,0.00951994921875
675,444.78913622978615
676,0.00951994921875
677,2790.912619119597
691,40.8954572667531
692,46.032
693,1074.0169418045998
768,1.9658387722702577
769,1.9658387722702577
770,0.12998674
798,1013.8602271230329
2,1, 1,15, 0,22, 0.00,60.00,WinterDesignDay
7,-3.0
8,21.000140096388897
143,21.000140096388897
206,21.000140096388897
269,21.000140096388897
332,21.000253116113615
395,21.000253116113615
458,21.000253116113615
521,21.000253116113615
584,46.032
647,253.58026394379692
648,0.00473837109375
651,253.58026394379692
652,0.00473837109375
655,253.58026394379692
656,0.00473837109375
659,253.58026394379692
660,0.00473837109375
663,444.7946192124666
664,0.00951994921875
667,444.7946192124666
668,0.00951994921875
671,444.7946192124666
672,0.00951994921875
675,444.7946192124666
676,0.00951994921875
677,2791.3409285030057
691,40.89466898358154
692,46.032
693,1074.181766575882
768,1.9658381473164959
769,1.9658381473164959
770,0.12998674
798,1014.3210557751877
2,1, 1,15, 0,23, 0.00,60.00,WinterDesignDay
7,-3.0
8,20.999809341981578
143,20.999809341981578
206,20.999809341981578
269,20.999809341981578
332,20.99949810677863
395,20.99949810677863
458,20.99949810677863
521,20.99949810677863
584,46.032
647,253.4666420564849
648,0.004731169921875
651,253.4666420564849
652,0.004731169921875
655,253.4666420564849
656,0.004731169921875
659,253.4666420564849
660,0.004731169921875
663,444.645822959121
664,0.009505546875
667,444.645822959121
668,0.009505546875
671,444.645822959121
672,0.009505546875
675,444.645822959121
676,0.009505546875
677,2790.341404854389
691,40.89650855960368
692,46.032
693,1073.7971234577158
768,1.9658396057386036
769,1.9658396057386036
770,0.12998674
798,1013.8665682259395
2,1, 1,15, 0,24, 0.00,60.00,WinterDesignDay
7,-3.0
8,20.999942864683387
143,20.999942864683387
206,20.999942864683387
269,20.999942864683387
332,21.00028304256945
395,21.00028304256945
458,21.00028304256945
521,21.00028304256945
584,46.032
647,253.4637879091947
648,0.004731169921875
651,253.4637879091947
652,0.004731169921875
655,253.4637879091947
656,0.004731169921875
659,253.4637879091947
660,0.004731169921875
663,444.7890921711293
664,0.00951994921875
667,444.7890921711293
668,0.00951994921875
671,444.7890921711293
672,0.00951994921875
675,444.7890921711293
676,0.00951994921875
677,2790.9680307047993
691,40.89535528435015
692,46.032
693,1074.0382656471565
768,1.9658386914181825
769,1.9658386914181825
770,0.12998674
798,1013.8551516367788
End of Data
 Number of Records Written=         816
