Program Version,EnergyPlus, Version 24.2.0-94a887817b, YMD=2026.05.08 12:15
1,5,Environment Title[],Latitude[deg],Longitude[deg],Time Zone[],Elevation[m]
2,8,Day of Simulation[],Month[],Day of Month[],DST Indicator[1=yes 0=no],Hour[],StartMinute[],EndMinute[],DayType
3,5,Cumulative Day of Simulation[],Month[],Day of Month[],DST Indicator[1=yes 0=no],DayType  ! When Daily Report Variables Requested
4,2,Cumulative Days of Simulation[],Month[]  ! When Monthly Report Variables Requested
5,1,Cumulative Days of Simulation[] ! When Run Period Report Variables Requested
6,1,Calendar Year of Simulation[] ! When Annual Report Variables Requested
7,1,Environment,Site Outdoor Air Drybulb Temperature [C] !Hourly
8,1,Z1,Zone Air Temperature [C] !Hourly
143,1,Z2,Zone Air Temperature [C] !Hourly
206,1,Z3,Zone Air Temperature [C] !Hourly
269,1,Z4,Zone Air Temperature [C] !Hourly
332,1,Z5,Zone Air Temperature [C] !Hourly
395,1,Z6,Zone Air Temperature [C] !Hourly
458,1,Z7,Zone Air Temperature [C] !Hourly
521,1,Z8,Zone Air Temperature [C] !Hourly
584,1,HOT WATER LOOP,Plant Supply Side Outlet Temperature [C] !Hourly
647,1,Z1 RADIATOR,Baseboard Total Heating Rate [W] !Hourly
648,1,Z1 RADIATOR,Baseboard Hot Water Mass Flow Rate [kg/s] !Hourly
651,1,Z2 RADIATOR,Baseboard Total Heating Rate [W] !Hourly
652,1,Z2 RADIATOR,Baseboard Hot Water Mass Flow Rate [kg/s] !Hourly
655,1,Z3 RADIATOR,Baseboard Total Heating Rate [W] !Hourly
656,1,Z3 RADIATOR,Baseboard Hot Water Mass Flow Rate [kg/s] !Hourly
659,1,Z4 RADIATOR,Baseboard Total Heating Rate [W] !Hourly
660,1,Z4 RADIATOR,Baseboard Hot Water Mass Flow Rate [kg/s] !Hourly
663,1,Z5 RADIATOR,Baseboard Total Heating Rate [W] !Hourly
664,1,Z5 RADIATOR,Baseboard Hot Water Mass Flow Rate [kg/s] !Hourly
667,1,Z6 RADIATOR,Baseboard Total Heating Rate [W] !Hourly
668,1,Z6 RADIATOR,Baseboard Hot Water Mass Flow Rate [kg/s] !Hourly
671,1,Z7 RADIATOR,Baseboard Total Heating Rate [W] !Hourly
672,1,Z7 RADIATOR,Baseboard Hot Water Mass Flow Rate [kg/s] !Hourly
675,1,Z8 RADIATOR,Baseboard Total Heating Rate [W] !Hourly
676,1,Z8 RADIATOR,Baseboard Hot Water Mass Flow Rate [kg/s] !Hourly
677,1,HEAT PUMP,Heat Pump Load Side Heat Transfer Rate [W] !Hourly
691,1,HEAT PUMP,Heat Pump Load Side Inlet Temperature [C] !Hourly
692,1,HEAT PUMP,Heat Pump Load Side Outlet Temperature [C] !Hourly
693,1,HEAT PUMP,Heat Pump Electricity Rate [W] !Hourly
768,1,SUPPLY PUMP,Pump Electricity Rate [W] !Hourly
769,1,SUPPLY PUMP,Pump Fluid Heat Gain Rate [W] !Hourly
770,1,SUPPLY PUMP,Pump Mass Flow Rate [kg/s] !Hourly
798,1,Baseboard Total Heating Rate All Zones,PythonPlugin:OutputVariable [W] !Hourly
End of Data Dictionary
1,WINTER DESIGN DAY IN (MID) UK,  53.35,  -2.28,   0.00,  69.00
2,1, 1,15, 0, 1, 0.00,60.00,WinterDesignDay
7,-3.0
8,20.99983349572352
143,20.99983349572352
206,20.99983349572352
269,20.99983349572352
332,20.999984663258967
395,20.999984663258967
458,20.999984663258967
521,20.999984663258967
584,46.032
647,253.41218019872352
648,0.0027256435546875006
651,253.41218019872352
652,0.0027256435546875006
655,253.41218019872352
656,0.0027256435546875006
659,253.41218019872352
660,0.0027256435546875006
663,444.8029052812764
664,0.00951994921875
667,444.8029052812764
668,0.00951994921875
671,444.8029052812764
672,0.00951994921875
675,444.8029052812764
676,0.00951994921875
677,2790.738282572871
691,40.89577812492547
692,46.032
693,1073.949852493571
768,1.9658390266474262
769,1.9658390266474262
770,0.12998674
798,1013.6487207948941
2,1, 1,15, 0, 2, 0.00,60.00,WinterDesignDay
7,-3.0
8,21.000006670900785
143,21.000006670900785
206,21.000006670900785
269,21.000006670900785
332,20.99978938783828
395,20.99978938783828
458,20.99978938783828
521,20.99978938783828
584,46.032
647,253.53498228213758
648,0.0027274438476562503
651,253.53498228213758
652,0.0027274438476562503
655,253.53498228213758
656,0.0027274438476562503
659,253.53498228213758
660,0.0027274438476562503
663,444.6366013214751
664,0.009505546875
667,444.6366013214751
668,0.009505546875
671,444.6366013214751
672,0.009505546875
675,444.6366013214751
676,0.009505546875
677,2790.597674090242
691,40.89603690819039
692,46.032
693,1073.8957426330646
768,1.965839231811556
769,1.965839231811556
770,0.12998674
798,1014.1399291285503
2,1, 1,15, 0, 3, 0.00,60.00,WinterDesignDay
7,-3.0
8,21.000223726062906
143,21.000223726062906
206,21.000223726062906
269,21.000223726062906
332,21.00030108343519
395,21.00030108343519
458,21.00030108343519
521,21.00030108343519
584,46.032
647,253.5332370420569
648,0.0027274438476562503
651,253.5332370420569
652,0.0027274438476562503
655,253.5332370420569
656,0.0027274438476562503
659,253.5332370420569
660,0.0027274438476562503
663,444.78934659107995
664,0.00951994921875
667,444.78934659107995
668,0.00951994921875
671,444.78934659107995
672,0.00951994921875
675,444.78934659107995
676,0.00951994921875
677,2791.1899235554024
691,40.894946901048755
692,46.032
693,1074.1236558808673
768,1.9658383676497497
769,1.9658383676497497
770,0.12998674
798,1014.1329481682276
2,1, 1,15, 0, 4, 0.00,60.00,WinterDesignDay
7,-3.0
8,20.999594559949145
143,20.999594559949145
206,20.999594559949145
269,20.999594559949145
332,20.99999509534532
395,20.99999509534532
458,20.99999509534532
521,20.99999509534532
584,46.032
647,253.41592480885828
648,0.0027256435546875006
651,253.41592480885828
652,0.0027256435546875006
655,253.41592480885828
656,0.0027256435546875006
659,253.41592480885828
660,0.0027256435546875006
663,444.80273764262705
664,0.00951994921875
667,444.80273764262705
668,0.00951994921875
671,444.80273764262705
672,0.00951994921875
675,444.80273764262705
676,0.00951994921875
677,2790.689231980977
691,40.895868400220955
692,46.032
693,1073.9309765293651
768,1.9658390982196512
769,1.9658390982196512
770,0.12998674
798,1013.6636992354331
2,1, 1,15, 0, 5, 0.00,60.00,WinterDesignDay
7,-3.0
8,21.000138363357042
143,21.000138363357042
206,21.000138363357042
269,21.000138363357042
332,20.999790788676673
395,20.999790788676673
458,20.999790788676673
521,20.999790788676673
584,46.032
647,253.53407641868728
648,0.0027274438476562503
651,253.53407641868728
652,0.0027274438476562503
655,253.53407641868728
656,0.0027274438476562503
659,253.53407641868728
660,0.0027274438476562503
663,444.63650986947283
664,0.009505546875
667,444.63650986947283
668,0.009505546875
671,444.63650986947283
672,0.009505546875
675,444.63650986947283
676,0.009505546875
677,2790.657636074956
691,40.895926550992264
692,46.032
693,1073.9188175896238
768,1.9658391443200975
769,1.9658391443200975
770,0.12998674
798,1014.1363056747491
2,1, 1,15, 0, 6, 0.00,60.00,WinterDesignDay
7,-3.0
8,20.999814421150283
143,20.999814421150283
206,20.999814421150283
269,20.999814421150283
332,21.00029646935559
395,21.00029646935559
458,21.00029646935559
521,21.00029646935559
584,46.032
647,253.41238053515448
648,0.0027256435546875006
651,253.41238053515448
652,0.0027256435546875006
655,253.41238053515448
656,0.0027256435546875006
659,253.41238053515448
660,0.0027256435546875006
663,444.78941147500313
664,0.00951994921875
667,444.78941147500313
668,0.00951994921875
671,444.78941147500313
672,0.00951994921875
675,444.78941147500313
676,0.00951994921875
677,2790.76824450769
691,40.89572298140091
692,46.032
693,1073.961382638006
768,1.965838982931231
769,1.965838982931231
770,0.12998674
798,1013.6495221406179
2,1, 1,15, 0, 7, 0.00,60.00,WinterDesignDay
7,-3.0
8,20.999996901545515
143,20.999996901545515
206,20.999996901545515
269,20.999996901545515
332,20.99998743062641
395,20.99998743062641
458,20.99998743062641
521,20.99998743062641
584,46.032
647,253.53507049330196
648,0.0027274438476562503
651,253.53507049330196
652,0.0027274438476562503
655,253.53507049330196
656,0.0027274438476562503
659,253.53507049330196
660,0.0027274438476562503
663,444.80287779160307
664,0.00951994921875
667,444.80287779160307
668,0.00951994921875
671,444.80287779160307
672,0.00951994921875
675,444.80287779160307
676,0.00951994921875
677,2791.104460808838
691,40.8951041911935
692,46.032
693,1074.0907675571432
768,1.9658384923515821
769,1.9658384923515821
770,0.12998674
798,1014.1402819732078
2,1, 1,15, 0, 8, 0.00,60.00,WinterDesignDay
7,-3.0
8,21.000216507177946
143,21.000216507177946
206,21.000216507177946
269,21.000216507177946
332,20.999791115289955
395,20.999791115289955
458,20.999791115289955
521,20.999791115289955
584,46.032
647,253.5333426692015
648,0.0027274438476562503
651,253.5333426692015
652,0.0027274438476562503
655,253.5333426692015
656,0.0027274438476562503
659,253.5333426692015
660,0.0027274438476562503
663,444.6365453770048
664,0.009505546875
667,444.6365453770048
668,0.009505546875
671,444.6365453770048
672,0.009505546875
675,444.6365453770048
676,0.009505546875
677,2790.6546921806903
691,40.89593196909048
692,46.032
693,1073.9176847013014
768,1.9658391486155855
769,1.9658391486155855
770,0.12998674
798,1014.133370676806
2,1, 1,15, 0, 9, 0.00,60.00,WinterDesignDay
7,-3.0
8,20.999871463194914
143,20.999871463194914
206,20.999871463194914
269,20.999871463194914
332,21.000303485077318
395,21.000303485077318
458,21.000303485077318
521,21.000303485077318
584,46.032
647,253.41175795179436
648,0.0027256435546875006
651,253.41175795179436
652,0.0027256435546875006
655,253.41175795179436
656,0.0027256435546875006
659,253.41175795179436
660,0.0027256435546875006
663,444.78931271691596
664,0.00951994921875
667,444.78931271691596
668,0.00951994921875
671,444.78931271691596
672,0.00951994921875
675,444.78931271691596
676,0.00951994921875
677,2790.7653386896704
691,40.8957283294216
692,46.032
693,1073.960264402429
768,1.965838987171161
769,1.965838987171161
770,0.12998674
798,1013.6470318071774
2,1, 1,15, 0,10, 0.00,60.00,WinterDesignDay
7,-3.0
8,20.99993077532495
143,20.99993077532495
206,20.99993077532495
269,20.99993077532495
332,20.999996029459258
395,20.999996029459258
458,20.999996029459258
521,20.999996029459258
584,46.032
647,253.53750298584657
648,0.0027274438476562503
651,253.53750298584657
652,0.0027274438476562503
655,253.53750298584657
656,0.0027274438476562503
659,253.53750298584657
660,0.0027274438476562503
663,444.80269391775204
664,0.00951994921875
667,444.80269391775204
668,0.00951994921875
671,444.80269391775204
672,0.00951994921875
675,444.80269391775204
676,0.00951994921875
677,2791.1141178423404
691,40.89508641787987
692,46.032
693,1074.094483838878
768,1.965838478261082
769,1.965838478261082
770,0.12998674
798,1014.1500119433863
2,1, 1,15, 0,11, 0.00,60.00,WinterDesignDay
7,-3.0
8,20.999788624022717
143,20.999788624022717
206,20.999788624022717
269,20.999788624022717
332,20.999790995501257
395,20.999790995501257
458,20.999790995501257
521,20.999790995501257
584,46.032
647,253.41265717672175
648,0.0027256435546875006
651,253.41265717672175
652,0.0027256435546875006
655,253.41265717672175
656,0.0027256435546875006
659,253.41265717672175
660,0.0027256435546875006
663,444.6365237873484
664,0.009505546875
667,444.6365237873484
668,0.009505546875
671,444.6365237873484
672,0.009505546875
675,444.6365237873484
676,0.009505546875
677,2790.2332816669214
691,40.89670755521861
692,46.032
693,1073.755514797399
768,1.965839763503209
769,1.965839763503209
770,0.12998674
798,1013.650628706887
2,1, 1,15, 0,12, 0.00,60.00,WinterDesignDay
7,-3.0
8,20.99997656303939
143,20.99997656303939
206,20.99997656303939
269,20.99997656303939
332,21.00029845213363
395,21.00029845213363
458,21.00029845213363
521,21.00029845213363
584,46.032
647,253.53527203986482
648,0.0027274438476562503
651,253.53527203986482
652,0.0027274438476562503
655,253.53527203986482
656,0.0027274438476562503
659,253.53527203986482
660,0.0027274438476562503
663,444.78939882954427
664,0.00951994921875
667,444.78939882954427
668,0.00951994921875
671,444.78939882954427
672,0.00951994921875
675,444.78939882954427
676,0.00951994921875
677,2791.1344756269455
691,40.89504895033974
692,46.032
693,1074.1023180524658
768,1.9658384485565759
769,1.9658384485565759
770,0.12998674
798,1014.1410881594593
2,1, 1,15, 0,13, 0.00,60.00,WinterDesignDay
7,-3.0
8,21.000206615958803
143,21.000206615958803
206,21.000206615958803
269,21.000206615958803
332,20.99998846562645
395,20.99998846562645
458,20.99998846562645
521,20.99998846562645
584,46.032
647,253.53343501885286
648,0.0027274438476562503
651,253.53343501885286
652,0.0027274438476562503
655,253.53343501885286
656,0.0027274438476562503
659,253.53343501885286
660,0.0027274438476562503
663,444.8028346043452
664,0.00951994921875
667,444.8028346043452
668,0.00951994921875
671,444.8028346043452
672,0.00951994921875
675,444.8028346043452
676,0.00951994921875
677,2791.1615463096437
691,40.89499912802801
692,46.032
693,1074.1127355666667
768,1.9658384090574255
769,1.9658384090574255
770,0.12998674
798,1014.1337400754114
2,1, 1,15, 0,14, 0.00,60.00,WinterDesignDay
7,-3.0
8,20.999863764700038
143,20.999863764700038
206,20.999863764700038
269,20.999863764700038
332,20.999792919605223
395,20.999792919605223
458,20.999792919605223
521,20.999792919605223
584,46.032
647,253.41187167989293
648,0.0027256435546875006
651,253.41187167989293
652,0.0027256435546875006
655,253.41187167989293
656,0.0027256435546875006
659,253.41187167989293
660,0.0027256435546875006
663,444.63652247576033
664,0.009505546875
667,444.63652247576033
668,0.009505546875
671,444.63652247576033
672,0.009505546875
675,444.63652247576033
676,0.009505546875
677,2790.230185317445
691,40.89671325390345
692,46.032
693,1073.7543232402813
768,1.9658397680211497
769,1.9658397680211497
770,0.12998674
798,1013.6474867195717
2,1, 1,15, 0,15, 0.00,60.00,WinterDesignDay
7,-3.0
8,20.999919251447896
143,20.999919251447896
206,20.999919251447896
269,20.999919251447896
332,21.000303897881324
395,21.000303897881324
458,21.000303897881324
521,21.000303897881324
584,46.032
647,253.5376132229885
648,0.0027274438476562503
651,253.5376132229885
652,0.0027274438476562503
655,253.5376132229885
656,0.0027274438476562503
659,253.5376132229885
660,0.0027274438476562503
663,444.78927858487424
664,0.00951994921875
667,444.78927858487424
668,0.00951994921875
671,444.78927858487424
672,0.00951994921875
675,444.78927858487424
676,0.00951994921875
677,2791.1440204585024
691,40.89503138352849
692,46.032
693,1074.1059911559262
768,1.9658384346277438
769,1.9658384346277438
770,0.12998674
798,1014.150452891954
2,1, 1,15, 0,16, 0.00,60.00,WinterDesignDay
7,-3.0
8,20.99978424180476
143,20.99978424180476
206,20.99978424180476
269,20.99978424180476
332,20.999986566916164
395,20.999986566916164
458,20.999986566916164
521,20.999986566916164
584,46.032
647,253.41268424869207
648,0.0027256435546875006
651,253.41268424869207
652,0.0027256435546875006
655,253.41268424869207
656,0.0027256435546875006
659,253.41268424869207
660,0.0027256435546875006
663,444.8028498580967
664,0.00951994921875
667,444.8028498580967
668,0.00951994921875
671,444.8028498580967
672,0.00951994921875
675,444.8028498580967
676,0.00951994921875
677,2790.7400213138026
691,40.89577492485499
692,46.032
693,1073.9505216070374
768,1.9658390241103996
769,1.9658390241103996
770,0.12998674
798,1013.6507369947683
2,1, 1,15, 0,17, 0.00,60.00,WinterDesignDay
7,-3.0
8,20.999973690285152
143,20.999973690285152
206,20.999973690285152
269,20.999973690285152
332,20.999787001172272
395,20.999787001172272
458,20.999787001172272
521,20.999787001172272
584,46.032
647,253.53533408570158
648,0.0027274438476562503
651,253.53533408570158
652,0.0027274438476562503
655,253.53533408570158
656,0.0027274438476562503
659,253.53533408570158
660,0.0027274438476562503
663,444.63662764885544
664,0.009505546875
667,444.63662764885544
668,0.009505546875
671,444.63662764885544
672,0.009505546875
675,444.63662764885544
676,0.009505546875
677,2790.5991931634308
691,40.896034112408
692,46.032
693,1073.896327212578
768,1.9658392295950495
769,1.9658392295950495
770,0.12998674
798,1014.1413363428063
2,1, 1,15, 0,18, 0.00,60.00,WinterDesignDay
7,-3.0
8,21.000198291874355
143,21.000198291874355
206,21.000198291874355
269,21.000198291874355
332,21.000296028239013
395,21.000296028239013
458,21.000296028239013
521,21.000296028239013
584,46.032
647,253.53351131161327
648,0.0027274438476562503
651,253.53351131161327
652,0.0027274438476562503
655,253.53351131161327
656,0.0027274438476562503
659,253.53351131161327
660,0.0027274438476562503
663,444.7894268564863
664,0.00951994921875
667,444.7894268564863
668,0.00951994921875
671,444.7894268564863
672,0.00951994921875
675,444.7894268564863
676,0.00951994921875
677,2791.1913431000535
691,40.894944288443924
692,46.032
693,1074.1242021591688
768,1.965838365578469
769,1.965838365578469
770,0.12998674
798,1014.1340452464531
2,1, 1,15, 0,19, 0.00,60.00,WinterDesignDay
7,-3.0
8,20.999861923821754
143,20.999861923821754
206,20.999861923821754
269,20.999861923821754
332,20.999988537941633
395,20.999988537941633
458,20.999988537941633
521,20.999988537941633
584,46.032
647,253.41187113448117
648,0.0027256435546875006
651,253.41187113448117
652,0.0027256435546875006
655,253.41187113448117
656,0.0027256435546875006
659,253.41187113448117
660,0.0027256435546875006
663,444.80284899144004
664,0.00951994921875
667,444.80284899144004
668,0.00951994921875
671,444.80284899144004
672,0.00951994921875
675,444.80284899144004
676,0.00951994921875
677,2790.736815876478
691,40.89578082431085
692,46.032
693,1073.9492880700327
768,1.9658390287875087
769,1.9658390287875087
770,0.12998674
798,1013.6474845379247
2,1, 1,15, 0,20, 0.00,60.00,WinterDesignDay
7,-3.0
8,21.000029621344474
143,21.000029621344474
206,21.000029621344474
269,21.000029621344474
332,20.99979529123337
395,20.99979529123337
458,20.99979529123337
521,20.99979529123337
584,46.032
647,253.5347396540191
648,0.0027274438476562503
651,253.5347396540191
652,0.0027274438476562503
655,253.5347396540191
656,0.0027274438476562503
659,253.5347396540191
660,0.0027274438476562503
663,444.6365035918696
664,0.009505546875
667,444.6365035918696
668,0.009505546875
671,444.6365035918696
672,0.009505546875
675,444.6365035918696
676,0.009505546875
677,2790.5963094694284
691,40.89603941971048
692,46.032
693,1073.8952174909077
768,1.9658392338026986
769,1.9658392338026986
770,0.12998674
798,1014.1389586160764
2,1, 1,15, 0,21, 0.00,60.00,WinterDesignDay
7,-3.0
8,20.99974184452846
143,20.99974184452846
206,20.99974184452846
269,20.99974184452846
332,21.000302781068292
395,21.000302781068292
458,21.000302781068292
521,21.000302781068292
584,46.032
647,253.41480515693948
648,0.0027256435546875006
651,253.41480515693948
652,0.0027256435546875006
655,253.41480515693948
656,0.0027256435546875006
659,253.41480515693948
660,0.0027256435546875006
663,444.78927197692525
664,0.00951994921875
667,444.78927197692525
668,0.00951994921875
671,444.78927197692525
672,0.00951994921875
675,444.78927197692525
676,0.00951994921875
677,2790.777992719133
691,40.8957050402786
692,46.032
693,1073.965134007422
768,1.965838968707437
769,1.965838968707437
770,0.12998674
798,1013.6592206277579
2,1, 1,15, 0,22, 0.00,60.00,WinterDesignDay
7,-3.0
8,20.999954930383367
143,20.999954930383367
206,20.999954930383367
269,20.999954930383367
332,20.999987968816026
395,20.999987968816026
458,20.999987968816026
521,20.999987968816026
584,46.032
647,253.53555719139777
648,0.0027274438476562503
651,253.53555719139777
652,0.0027274438476562503
655,253.53555719139777
656,0.0027274438476562503
659,253.53555719139777
660,0.0027274438476562503
663,444.8028475234736
664,0.00951994921875
667,444.8028475234736
668,0.00951994921875
671,444.8028475234736
672,0.00951994921875
675,444.8028475234736
676,0.00951994921875
677,2791.106277897763
691,40.89510084692723
692,46.032
693,1074.0914668209887
768,1.965838489700237
769,1.965838489700237
770,0.12998674
798,1014.1422287655911
2,1, 1,15, 0,23, 0.00,60.00,WinterDesignDay
7,-3.0
8,21.000186816752922
143,21.000186816752922
206,21.000186816752922
269,21.000186816752922
332,20.999787901656767
395,20.999787901656767
458,20.999787901656767
521,20.999787901656767
584,46.032
647,253.53366732988957
648,0.0027274438476562503
651,253.53366732988957
652,0.0027274438476562503
655,253.53366732988957
656,0.0027274438476562503
659,253.53366732988957
660,0.0027274438476562503
663,444.636588680714
664,0.009505546875
667,444.636588680714
668,0.009505546875
671,444.636588680714
672,0.009505546875
675,444.636588680714
676,0.009505546875
677,2790.6561648502793
691,40.89592925871173
692,46.032
693,1073.9182514234828
768,1.965839146466787
769,1.965839146466787
770,0.12998674
798,1014.1346693195583
2,1, 1,15, 0,24, 0.00,60.00,WinterDesignDay
7,-3.0
8,20.999848160355363
143,20.999848160355363
206,20.999848160355363
269,20.999848160355363
332,21.000298017459087
395,21.000298017459087
458,21.000298017459087
521,21.000298017459087
584,46.032
647,253.41200816931067
648,0.0027256435546875006
651,253.41200816931067
652,0.0027256435546875006
655,253.41200816931067
656,0.0027256435546875006
659,253.41200816931067
660,0.0027256435546875006
663,444.7894018530361
664,0.00951994921875
667,444.7894018530361
668,0.00951994921875
671,444.7894018530361
672,0.00951994921875
675,444.7894018530361
676,0.00951994921875
677,2790.766699662564
691,40.895725824615326
692,46.032
693,1073.96078814077
768,1.9658389851853417
769,1.9658389851853417
770,0.12998674
798,1013.6480326772427
End of Data
 Number of Records Written=         816
