Program Version,EnergyPlus, Version 24.2.0-94a887817b, YMD=2025.06.26 13:07
1,5,Environment Title[],Latitude[deg],Longitude[deg],Time Zone[],Elevation[m]
2,8,Day of Simulation[],Month[],Day of Month[],DST Indicator[1=yes 0=no],Hour[],StartMinute[],EndMinute[],DayType
3,5,Cumulative Day of Simulation[],Month[],Day of Month[],DST Indicator[1=yes 0=no],DayType  ! When Daily Report Variables Requested
4,2,Cumulative Days of Simulation[],Month[]  ! When Monthly Report Variables Requested
5,1,Cumulative Days of Simulation[] ! When Run Period Report Variables Requested
6,1,Calendar Year of Simulation[] ! When Annual Report Variables Requested
7,1,Z1,Zone Air Temperature [C] !Hourly
142,1,Z2,Zone Air Temperature [C] !Hourly
205,1,Z3,Zone Air Temperature [C] !Hourly
268,1,Z4,Zone Air Temperature [C] !Hourly
393,1,Z1 RADIATOR,Baseboard Total Heating Rate [W] !Hourly
396,1,Z2 RADIATOR,Baseboard Total Heating Rate [W] !Hourly
399,1,Z3 RADIATOR,Baseboard Total Heating Rate [W] !Hourly
402,1,Z4 RADIATOR,Baseboard Total Heating Rate [W] !Hourly
403,1,HEAT PUMP,Heat Pump Load Side Heat Transfer Rate [W] !Hourly
417,1,HEAT PUMP,Heat Pump Electricity Rate [W] !Hourly
492,1,SUPPLY PUMP,Pump Electricity Rate [W] !Hourly
End of Data Dictionary
1,SUMMER DESIGN DAY IN SALFORD ENERGY HOUSE 1.0 (01-01:31-12) JUN HVAC Sizing Pass 1,  53.35,  -2.28,   0.00,  69.00
2,1, 6,15, 1, 1, 0.00,60.00,SummerDesignDay
7,21.38892785181483
142,21.388927844102618
205,21.388927539795656
268,21.388927532083446
393,0.0
396,0.0
399,0.0
402,0.0
403,0.0
417,0.0
492,0.0
2,1, 6,15, 1, 2, 0.00,60.00,SummerDesignDay
7,21.023913140674523
142,21.02391313708199
205,20.928672267624346
268,20.928672264021614
393,20.174805438245905
396,20.174805440384823
399,0.0
402,0.0
403,56.9284821820392
417,16.26528062343977
492,0.7076328471983988
2,1, 6,15, 1, 3, 0.00,60.00,SummerDesignDay
7,20.999915654244145
142,20.99991565269901
205,20.524398051417208
268,20.524398049732383
393,49.57317620135079
396,49.57317620410977
399,0.0
402,0.0
403,138.58032260981292
417,39.594377888517975
492,2.116941713308951
2,1, 6,15, 1, 4, 0.00,60.00,SummerDesignDay
7,20.999805531995435
142,20.999805531317723
205,20.206925654830883
268,20.206925654054594
393,61.79818733896133
396,61.79818734046622
399,0.0
402,0.0
403,143.9498889178199
417,41.12853969080568
492,2.8174407253752847
2,1, 6,15, 1, 5, 0.00,60.00,SummerDesignDay
7,21.000109309139035
142,21.000109348509707
205,19.96146316007579
268,19.961463194640885
393,70.88767162248647
396,70.88767158408099
399,0.0
402,0.0
403,135.4246879345132
417,38.692767981289485
492,2.817461338964185
2,1, 6,15, 1, 6, 0.00,60.00,SummerDesignDay
7,20.999995809826085
142,20.999995987032648
205,19.79351234420561
268,19.793512514529176
393,74.41911252681274
396,74.41911222004987
399,0.0
402,0.0
403,142.59745765685634
417,40.74213075910181
492,2.817443995369247
2,1, 6,15, 1, 7, 0.00,60.00,SummerDesignDay
7,21.00003194620318
142,21.00003226426744
205,19.733325458846142
268,19.73332577170921
393,70.03027131694012
396,70.03027072792725
399,0.0
402,0.0
403,142.26954696653144
417,40.64844199043755
492,2.8174447882492197
2,1, 6,15, 1, 8, 0.00,60.00,SummerDesignDay
7,21.000145326381634
142,21.00014573674801
205,19.848054795279616
268,19.848055212238613
393,52.06224948433963
396,52.06224888895181
399,0.0
402,0.0
403,73.84143921774253
417,21.097554062212147
492,1.4161729978539683
2,1, 6,15, 1, 9, 0.00,60.00,SummerDesignDay
7,20.99979338441768
142,20.99979382424063
205,20.188011888216252
268,20.18801233701476
393,23.433976878062992
396,23.433976577219916
399,0.0
402,0.0
403,0.0
417,0.0
492,0.007142637105437432
2,1, 6,15, 1,10, 0.00,60.00,SummerDesignDay
7,21.03986868628051
142,21.039869101036075
205,20.69296266173583
268,20.6929630809996
393,1.4103518529486059
396,1.410351834745672
399,0.0
402,0.0
403,0.0
417,0.0
492,0.0004298673611530986
2,1, 6,15, 1,11, 0.00,60.00,SummerDesignDay
7,21.359045891219075
142,21.359046216300577
205,21.24395023842407
268,21.24395056428107
393,0.0
396,0.0
399,0.0
402,0.0
403,0.0
417,0.0
492,0.0
2,1, 6,15, 1,12, 0.00,60.00,SummerDesignDay
7,21.86476744294776
142,21.864767638180226
205,21.82548630693955
268,21.825486502319542
393,0.0
396,0.0
399,0.0
402,0.0
403,0.0
417,0.0
492,0.0
2,1, 6,15, 1,13, 0.00,60.00,SummerDesignDay
7,22.419734657972832
142,22.419734701651024
205,22.40633677395547
268,22.40633681766246
393,0.0
396,0.0
399,0.0
402,0.0
403,0.0
417,0.0
492,0.0
2,1, 6,15, 1,14, 0.00,60.00,SummerDesignDay
7,22.97044253346843
142,22.970442420550455
205,22.965880538446626
268,22.965880425534237
393,0.0
396,0.0
399,0.0
402,0.0
403,0.0
417,0.0
492,0.0
2,1, 6,15, 1,15, 0.00,60.00,SummerDesignDay
7,23.457010833396893
142,23.45701057436407
205,23.45545854154558
268,23.45545828251373
393,0.0
396,0.0
399,0.0
402,0.0
403,0.0
417,0.0
492,0.0
2,1, 6,15, 1,16, 0.00,60.00,SummerDesignDay
7,23.809330598109653
142,23.809330213266396
205,23.80880138096883
268,23.808800996125676
393,0.0
396,0.0
399,0.0
402,0.0
403,0.0
417,0.0
492,0.0
2,1, 6,15, 1,17, 0.00,60.00,SummerDesignDay
7,23.988295242077662
142,23.98829477533124
205,23.98811300622145
268,23.988112539474997
393,0.0
396,0.0
399,0.0
402,0.0
403,0.0
417,0.0
492,0.0
2,1, 6,15, 1,18, 0.00,60.00,SummerDesignDay
7,24.00612404932606
142,24.00612355513631
205,24.006058287654923
268,24.00605779346514
393,0.0
396,0.0
399,0.0
402,0.0
403,0.0
417,0.0
492,0.0
2,1, 6,15, 1,19, 0.00,60.00,SummerDesignDay
7,23.86947770586518
142,23.869477258320785
205,23.869447572227728
268,23.869447124683308
393,0.0
396,0.0
399,0.0
402,0.0
403,0.0
417,0.0
492,0.0
2,1, 6,15, 1,20, 0.00,60.00,SummerDesignDay
7,23.581785006325386
142,23.58178468038992
205,23.58177090339685
268,23.581770577461384
393,0.0
396,0.0
399,0.0
402,0.0
403,0.0
417,0.0
492,0.0
2,1, 6,15, 1,21, 0.00,60.00,SummerDesignDay
7,23.212080857374808
142,23.212080693758768
205,23.212074273905575
268,23.21207411028954
393,0.0
396,0.0
399,0.0
402,0.0
403,0.0
417,0.0
492,0.0
2,1, 6,15, 1,22, 0.00,60.00,SummerDesignDay
7,22.790441686799944
142,22.79044161079245
205,22.79043861274318
268,22.790438536735678
393,0.0
396,0.0
399,0.0
402,0.0
403,0.0
417,0.0
492,0.0
2,1, 6,15, 1,23, 0.00,60.00,SummerDesignDay
7,22.333142682524844
142,22.333142647091638
205,22.333141249012236
268,22.33314121357902
393,0.0
396,0.0
399,0.0
402,0.0
403,0.0
417,0.0
492,0.0
2,1, 6,15, 1,24, 0.00,60.00,SummerDesignDay
7,21.863668081403937
142,21.86366806487981
205,21.863667412875124
268,21.863667396350998
393,0.0
396,0.0
399,0.0
402,0.0
403,0.0
417,0.0
492,0.0
1,WINTER DESIGN DAY IN (MID) UK HVAC Sizing Pass 1,  53.35,  -2.28,   0.00,  69.00
2,1, 1,15, 0, 1, 0.00,60.00,WinterDesignDay
7,19.97793139227302
142,19.97793139227302
205,17.99949457591258
268,17.99949457591258
393,461.4989457728808
396,461.4989457728808
399,353.4500842650786
402,353.4500842650786
403,833.6193562830674
417,238.17695893801925
492,7.114482068369222
2,1, 1,15, 0, 2, 0.00,60.00,WinterDesignDay
7,19.98519241764728
142,19.98519241764728
205,18.0002317131622
268,18.0002317131622
393,461.3677775120295
396,461.3677775120295
399,353.4428887562717
402,353.4428887562717
403,697.4343935198485
417,199.2669695770996
492,7.114493909698687
2,1, 1,15, 0, 3, 0.00,60.00,WinterDesignDay
7,19.971744624833242
142,19.971744624833242
205,17.9995928424658
268,17.9995928424658
393,460.02405447788146
396,460.02405447788146
399,353.3294055848016
402,353.3294055848016
403,810.5130928975468
417,231.5751693992991
492,4.249065635871003
2,1, 1,15, 0, 4, 0.00,60.00,WinterDesignDay
7,19.973518288215082
142,19.973518288215082
205,17.99974599236908
268,17.99974599236908
393,460.77497295478236
396,460.77497295478236
399,353.38749650310604
402,353.38749650310604
403,830.4313899317581
417,237.2661114090737
492,5.6818751389639095
2,1, 1,15, 0, 5, 0.00,60.00,WinterDesignDay
7,19.97944491411247
142,19.97944491411247
205,18.000159571514878
268,18.000159571514878
393,461.47742119880746
396,461.47742119880746
399,353.44447289787166
402,353.44447289787166
403,828.8828547133007
417,236.82367277522883
492,7.114483223259159
2,1, 1,15, 0, 6, 0.00,60.00,WinterDesignDay
7,19.97228117256105
142,19.97228117256105
205,17.999720001979334
268,17.999720001979334
393,460.0011742141774
396,460.0011742141774
399,353.32683757998296
402,353.32683757998296
403,723.0683692051389
417,206.59096263003966
492,4.249224636422989
2,1, 1,15, 0, 7, 0.00,60.00,WinterDesignDay
7,19.968211906680686
142,19.968211906680686
205,17.999715644673536
268,17.999715644673536
393,460.0741284957898
396,460.0741284957898
399,353.4257092540983
402,353.4257092540983
403,780.3239604554934
417,222.9497029872838
492,4.249120621447121
2,1, 1,15, 0, 8, 0.00,60.00,WinterDesignDay
7,19.970055958196873
142,19.970055958196873
205,17.999924916668814
268,17.999924916668814
393,460.0316068390751
396,460.0316068390751
399,353.52085746136527
402,353.52085746136527
403,624.9417838961159
417,178.55479539889026
492,4.249201590747993
2,1, 1,15, 0, 9, 0.00,60.00,WinterDesignDay
7,19.96618135080414
142,19.96618135080414
205,18.000132740106253
268,18.000132740106253
393,460.1025111301674
396,460.1025111301674
399,353.5170194275168
402,353.5170194275168
403,770.360294315331
417,220.1029412329517
492,4.249118138689593
2,1, 1,15, 0,10, 0.00,60.00,WinterDesignDay
7,19.961536974849356
142,19.961536974849356
205,17.999641130827996
268,17.999641130827996
393,460.18908743813324
396,460.18908743813324
399,353.4215287893605
402,353.4215287893605
403,946.5755109532129
417,270.45014598663226
492,4.248818376253515
2,1, 1,15, 0,11, 0.00,60.00,WinterDesignDay
7,19.970186271089943
142,19.970186271089943
205,18.00006458359726
268,18.00006458359726
393,460.82521219593684
396,460.82521219593684
399,353.57622105399753
402,353.57622105399753
403,770.7941513533046
417,220.22690038665849
492,5.68188987986461
2,1, 1,15, 0,12, 0.00,60.00,WinterDesignDay
7,19.97198636787003
142,19.97198636787003
205,17.99979263880535
268,17.99979263880535
393,460.79079751457664
396,460.79079751457664
399,353.5350968048648
402,353.5350968048648
403,773.8375294720591
417,221.09643699201686
492,5.6819184890610845
2,1, 1,15, 0,13, 0.00,60.00,WinterDesignDay
7,19.972062835492554
142,19.972062835492554
205,18.000041647885844
268,18.000041647885844
393,460.79944323022994
396,460.79944323022994
399,353.5784041140689
402,353.5784041140689
403,806.3436065140302
417,230.3838875754372
492,5.681859683846181
2,1, 1,15, 0,14, 0.00,60.00,WinterDesignDay
7,19.975313550817095
142,19.975313550817095
205,17.999565579667472
268,17.999565579667472
393,460.73930350234195
396,460.73930350234195
399,353.3870604523919
402,353.3870604523919
403,724.0838729805391
417,206.88110656586832
492,5.681881753283962
2,1, 1,15, 0,15, 0.00,60.00,WinterDesignDay
7,19.981862731983544
142,19.981862731983544
205,17.99995949012514
268,17.99995949012514
393,462.23833650671384
396,462.23833650671384
399,353.50783661651326
402,353.50783661651326
403,986.7990297235563
417,281.9425799210161
492,8.547008547008547
2,1, 1,15, 0,16, 0.00,60.00,WinterDesignDay
7,19.983893344378956
142,19.983893344378956
205,17.999983507758056
268,17.999983507758056
393,461.39531004019005
396,461.39531004019005
399,353.29192963686086
402,353.29192963686086
403,785.6888922370676
417,224.48254063916218
492,7.114493742475906
2,1, 1,15, 0,17, 0.00,60.00,WinterDesignDay
7,19.98630697510562
142,19.98630697510562
205,18.000235160358034
268,18.000235160358034
393,461.353531512274
396,461.353531512274
399,353.44681809276665
402,353.44681809276665
403,770.9121180791678
417,220.2606051654765
492,7.1144933856326205
2,1, 1,15, 0,18, 0.00,60.00,WinterDesignDay
7,19.978883149828647
142,19.978883149828647
205,17.999810851545927
268,17.999810851545927
393,460.70373990050956
396,460.70373990050956
399,353.2356794969278
402,353.2356794969278
403,805.3151614150048
417,230.0900461185728
492,5.681853264528865
2,1, 1,15, 0,19, 0.00,60.00,WinterDesignDay
7,19.970971897824995
142,19.970971897824995
205,17.999737902088153
268,17.999737902088153
393,459.22859625055185
396,459.22859625055185
399,353.2677421794617
402,353.2677421794617
403,527.2238060894633
417,150.63537316841808
492,2.8165142441445328
2,1, 1,15, 0,20, 0.00,60.00,WinterDesignDay
7,19.968575354408003
142,19.968575354408003
205,17.999532245755038
268,17.999532245755038
393,460.0696286602956
396,460.0696286602956
399,353.3290504569161
402,353.3290504569161
403,798.4195292768179
417,228.11986550766227
492,4.249102105925417
2,1, 1,15, 0,21, 0.00,60.00,WinterDesignDay
7,19.96583001228363
142,19.96583001228363
205,17.999891415717386
268,17.999891415717386
393,460.1103360693667
396,460.1103360693667
399,353.52212093662973
402,353.52212093662973
403,823.357779830268
417,235.24507995150512
492,4.249066739350693
2,1, 1,15, 0,22, 0.00,60.00,WinterDesignDay
7,19.977938541524132
142,19.977938541524132
205,18.000121504675203
268,18.000121504675203
393,462.3007787669518
396,462.3007787669518
399,353.5033293613478
402,353.5033293613478
403,1024.0630590878552
417,292.58944545367297
492,8.547008547008547
2,1, 1,15, 0,23, 0.00,60.00,WinterDesignDay
7,19.96834782027149
142,19.96834782027149
205,17.999447143292322
268,17.999447143292322
393,459.25998998444135
396,459.25998998444135
399,353.36600923882173
402,353.36600923882173
403,513.5512079196825
417,146.7289165484807
492,2.816547288974443
2,1, 1,15, 0,24, 0.00,60.00,WinterDesignDay
7,19.961679142062234
142,19.961679142062234
205,17.999626640044948
268,17.999626640044948
393,459.394870238909
396,459.394870238909
399,353.46243657113075
402,353.46243657113075
403,722.7999967455146
417,206.51428478443276
492,2.8160416418501524
1,SUMMER DESIGN DAY IN SALFORD ENERGY HOUSE 1.0 (01-01:31-12) JUN,  53.35,  -2.28,   0.00,  69.00
2,1, 6,15, 1, 1, 0.00,60.00,SummerDesignDay
7,21.38892785181483
142,21.388927844102618
205,21.388927539795656
268,21.388927532083446
393,0.0
396,0.0
399,0.0
402,0.0
403,0.0
417,0.0
492,0.0
2,1, 6,15, 1, 2, 0.00,60.00,SummerDesignDay
7,21.023913140674523
142,21.02391313708199
205,20.928672267624346
268,20.928672264021614
393,20.174805438245905
396,20.174805440384823
399,0.0
402,0.0
403,56.9284821820392
417,16.26528062343977
492,0.7076328471983988
2,1, 6,15, 1, 3, 0.00,60.00,SummerDesignDay
7,20.999915654244145
142,20.99991565269901
205,20.524398051417208
268,20.524398049732383
393,49.57317620135079
396,49.57317620410977
399,0.0
402,0.0
403,138.58032260981292
417,39.594377888517975
492,2.116941713308951
2,1, 6,15, 1, 4, 0.00,60.00,SummerDesignDay
7,20.999805531995435
142,20.999805531317723
205,20.206925654830883
268,20.206925654054594
393,61.79818733896133
396,61.79818734046622
399,0.0
402,0.0
403,143.9498889178199
417,41.12853969080568
492,2.8174407253752847
2,1, 6,15, 1, 5, 0.00,60.00,SummerDesignDay
7,21.000109309139035
142,21.000109348509707
205,19.96146316007579
268,19.961463194640885
393,70.88767162248647
396,70.88767158408099
399,0.0
402,0.0
403,135.4246879345132
417,38.692767981289485
492,2.817461338964185
2,1, 6,15, 1, 6, 0.00,60.00,SummerDesignDay
7,20.999995809826085
142,20.999995987032648
205,19.79351234420561
268,19.793512514529176
393,74.41911252681274
396,74.41911222004987
399,0.0
402,0.0
403,142.59745765685634
417,40.74213075910181
492,2.817443995369247
2,1, 6,15, 1, 7, 0.00,60.00,SummerDesignDay
7,21.00003194620318
142,21.00003226426744
205,19.733325458846142
268,19.73332577170921
393,70.03027131694012
396,70.03027072792725
399,0.0
402,0.0
403,142.26954696653144
417,40.64844199043755
492,2.8174447882492197
2,1, 6,15, 1, 8, 0.00,60.00,SummerDesignDay
7,21.000145326381634
142,21.00014573674801
205,19.848054795279616
268,19.848055212238613
393,52.06224948433963
396,52.06224888895181
399,0.0
402,0.0
403,73.84143921774253
417,21.097554062212147
492,1.4161729978539683
2,1, 6,15, 1, 9, 0.00,60.00,SummerDesignDay
7,20.99979338441768
142,20.99979382424063
205,20.188011888216252
268,20.18801233701476
393,23.433976878062992
396,23.433976577219916
399,0.0
402,0.0
403,0.0
417,0.0
492,0.007142637105437432
2,1, 6,15, 1,10, 0.00,60.00,SummerDesignDay
7,21.03986868628051
142,21.039869101036075
205,20.69296266173583
268,20.6929630809996
393,1.4103518529486059
396,1.410351834745672
399,0.0
402,0.0
403,0.0
417,0.0
492,0.0004298673611530986
2,1, 6,15, 1,11, 0.00,60.00,SummerDesignDay
7,21.359045891219075
142,21.359046216300577
205,21.24395023842407
268,21.24395056428107
393,0.0
396,0.0
399,0.0
402,0.0
403,0.0
417,0.0
492,0.0
2,1, 6,15, 1,12, 0.00,60.00,SummerDesignDay
7,21.86476744294776
142,21.864767638180226
205,21.82548630693955
268,21.825486502319542
393,0.0
396,0.0
399,0.0
402,0.0
403,0.0
417,0.0
492,0.0
2,1, 6,15, 1,13, 0.00,60.00,SummerDesignDay
7,22.419734657972832
142,22.419734701651024
205,22.40633677395547
268,22.40633681766246
393,0.0
396,0.0
399,0.0
402,0.0
403,0.0
417,0.0
492,0.0
2,1, 6,15, 1,14, 0.00,60.00,SummerDesignDay
7,22.97044253346843
142,22.970442420550455
205,22.965880538446626
268,22.965880425534237
393,0.0
396,0.0
399,0.0
402,0.0
403,0.0
417,0.0
492,0.0
2,1, 6,15, 1,15, 0.00,60.00,SummerDesignDay
7,23.457010833396893
142,23.45701057436407
205,23.45545854154558
268,23.45545828251373
393,0.0
396,0.0
399,0.0
402,0.0
403,0.0
417,0.0
492,0.0
2,1, 6,15, 1,16, 0.00,60.00,SummerDesignDay
7,23.809330598109653
142,23.809330213266396
205,23.80880138096883
268,23.808800996125676
393,0.0
396,0.0
399,0.0
402,0.0
403,0.0
417,0.0
492,0.0
2,1, 6,15, 1,17, 0.00,60.00,SummerDesignDay
7,23.988295242077662
142,23.98829477533124
205,23.98811300622145
268,23.988112539474997
393,0.0
396,0.0
399,0.0
402,0.0
403,0.0
417,0.0
492,0.0
2,1, 6,15, 1,18, 0.00,60.00,SummerDesignDay
7,24.00612404932606
142,24.00612355513631
205,24.006058287654923
268,24.00605779346514
393,0.0
396,0.0
399,0.0
402,0.0
403,0.0
417,0.0
492,0.0
2,1, 6,15, 1,19, 0.00,60.00,SummerDesignDay
7,23.86947770586518
142,23.869477258320785
205,23.869447572227728
268,23.869447124683308
393,0.0
396,0.0
399,0.0
402,0.0
403,0.0
417,0.0
492,0.0
2,1, 6,15, 1,20, 0.00,60.00,SummerDesignDay
7,23.581785006325386
142,23.58178468038992
205,23.58177090339685
268,23.581770577461384
393,0.0
396,0.0
399,0.0
402,0.0
403,0.0
417,0.0
492,0.0
2,1, 6,15, 1,21, 0.00,60.00,SummerDesignDay
7,23.212080857374808
142,23.212080693758768
205,23.212074273905575
268,23.21207411028954
393,0.0
396,0.0
399,0.0
402,0.0
403,0.0
417,0.0
492,0.0
2,1, 6,15, 1,22, 0.00,60.00,SummerDesignDay
7,22.790441686799944
142,22.79044161079245
205,22.79043861274318
268,22.790438536735678
393,0.0
396,0.0
399,0.0
402,0.0
403,0.0
417,0.0
492,0.0
2,1, 6,15, 1,23, 0.00,60.00,SummerDesignDay
7,22.333142682524844
142,22.333142647091638
205,22.333141249012236
268,22.33314121357902
393,0.0
396,0.0
399,0.0
402,0.0
403,0.0
417,0.0
492,0.0
2,1, 6,15, 1,24, 0.00,60.00,SummerDesignDay
7,21.863668081403937
142,21.86366806487981
205,21.863667412875124
268,21.863667396350998
393,0.0
396,0.0
399,0.0
402,0.0
403,0.0
417,0.0
492,0.0
1,WINTER DESIGN DAY IN (MID) UK,  53.35,  -2.28,   0.00,  69.00
2,1, 1,15, 0, 1, 0.00,60.00,WinterDesignDay
7,19.97793139227302
142,19.97793139227302
205,17.99949457591258
268,17.99949457591258
393,461.4989457728808
396,461.4989457728808
399,353.4500842650786
402,353.4500842650786
403,833.6193562830674
417,238.17695893801925
492,7.114482068369222
2,1, 1,15, 0, 2, 0.00,60.00,WinterDesignDay
7,19.98519241764728
142,19.98519241764728
205,18.0002317131622
268,18.0002317131622
393,461.3677775120295
396,461.3677775120295
399,353.4428887562717
402,353.4428887562717
403,697.4343935198485
417,199.2669695770996
492,7.114493909698687
2,1, 1,15, 0, 3, 0.00,60.00,WinterDesignDay
7,19.971744624833242
142,19.971744624833242
205,17.9995928424658
268,17.9995928424658
393,460.02405447788146
396,460.02405447788146
399,353.3294055848016
402,353.3294055848016
403,810.5130928975468
417,231.5751693992991
492,4.249065635871003
2,1, 1,15, 0, 4, 0.00,60.00,WinterDesignDay
7,19.973518288215082
142,19.973518288215082
205,17.99974599236908
268,17.99974599236908
393,460.77497295478236
396,460.77497295478236
399,353.38749650310604
402,353.38749650310604
403,830.4313899317581
417,237.2661114090737
492,5.6818751389639095
2,1, 1,15, 0, 5, 0.00,60.00,WinterDesignDay
7,19.97944491411247
142,19.97944491411247
205,18.000159571514878
268,18.000159571514878
393,461.47742119880746
396,461.47742119880746
399,353.44447289787166
402,353.44447289787166
403,828.8828547133007
417,236.82367277522883
492,7.114483223259159
2,1, 1,15, 0, 6, 0.00,60.00,WinterDesignDay
7,19.97228117256105
142,19.97228117256105
205,17.999720001979334
268,17.999720001979334
393,460.0011742141774
396,460.0011742141774
399,353.32683757998296
402,353.32683757998296
403,723.0683692051389
417,206.59096263003966
492,4.249224636422989
2,1, 1,15, 0, 7, 0.00,60.00,WinterDesignDay
7,19.968211906680686
142,19.968211906680686
205,17.999715644673536
268,17.999715644673536
393,460.0741284957898
396,460.0741284957898
399,353.4257092540983
402,353.4257092540983
403,780.3239604554934
417,222.9497029872838
492,4.249120621447121
2,1, 1,15, 0, 8, 0.00,60.00,WinterDesignDay
7,19.970055958196873
142,19.970055958196873
205,17.999924916668814
268,17.999924916668814
393,460.0316068390751
396,460.0316068390751
399,353.52085746136527
402,353.52085746136527
403,624.9417838961159
417,178.55479539889026
492,4.249201590747993
2,1, 1,15, 0, 9, 0.00,60.00,WinterDesignDay
7,19.96618135080414
142,19.96618135080414
205,18.000132740106253
268,18.000132740106253
393,460.1025111301674
396,460.1025111301674
399,353.5170194275168
402,353.5170194275168
403,770.360294315331
417,220.1029412329517
492,4.249118138689593
2,1, 1,15, 0,10, 0.00,60.00,WinterDesignDay
7,19.961536974849356
142,19.961536974849356
205,17.999641130827996
268,17.999641130827996
393,460.18908743813324
396,460.18908743813324
399,353.4215287893605
402,353.4215287893605
403,946.5755109532129
417,270.45014598663226
492,4.248818376253515
2,1, 1,15, 0,11, 0.00,60.00,WinterDesignDay
7,19.970186271089943
142,19.970186271089943
205,18.00006458359726
268,18.00006458359726
393,460.82521219593684
396,460.82521219593684
399,353.57622105399753
402,353.57622105399753
403,770.7941513533046
417,220.22690038665849
492,5.68188987986461
2,1, 1,15, 0,12, 0.00,60.00,WinterDesignDay
7,19.97198636787003
142,19.97198636787003
205,17.99979263880535
268,17.99979263880535
393,460.79079751457664
396,460.79079751457664
399,353.5350968048648
402,353.5350968048648
403,773.8375294720591
417,221.09643699201686
492,5.6819184890610845
2,1, 1,15, 0,13, 0.00,60.00,WinterDesignDay
7,19.972062835492554
142,19.972062835492554
205,18.000041647885844
268,18.000041647885844
393,460.79944323022994
396,460.79944323022994
399,353.5784041140689
402,353.5784041140689
403,806.3436065140302
417,230.3838875754372
492,5.681859683846181
2,1, 1,15, 0,14, 0.00,60.00,WinterDesignDay
7,19.975313550817095
142,19.975313550817095
205,17.999565579667472
268,17.999565579667472
393,460.73930350234195
396,460.73930350234195
399,353.3870604523919
402,353.3870604523919
403,724.0838729805391
417,206.88110656586832
492,5.681881753283962
2,1, 1,15, 0,15, 0.00,60.00,WinterDesignDay
7,19.981862731983544
142,19.981862731983544
205,17.99995949012514
268,17.99995949012514
393,462.23833650671384
396,462.23833650671384
399,353.50783661651326
402,353.50783661651326
403,986.7990297235563
417,281.9425799210161
492,8.547008547008547
2,1, 1,15, 0,16, 0.00,60.00,WinterDesignDay
7,19.983893344378956
142,19.983893344378956
205,17.999983507758056
268,17.999983507758056
393,461.39531004019005
396,461.39531004019005
399,353.29192963686086
402,353.29192963686086
403,785.6888922370676
417,224.48254063916218
492,7.114493742475906
2,1, 1,15, 0,17, 0.00,60.00,WinterDesignDay
7,19.98630697510562
142,19.98630697510562
205,18.000235160358034
268,18.000235160358034
393,461.353531512274
396,461.353531512274
399,353.44681809276665
402,353.44681809276665
403,770.9121180791678
417,220.2606051654765
492,7.1144933856326205
2,1, 1,15, 0,18, 0.00,60.00,WinterDesignDay
7,19.978883149828647
142,19.978883149828647
205,17.999810851545927
268,17.999810851545927
393,460.70373990050956
396,460.70373990050956
399,353.2356794969278
402,353.2356794969278
403,805.3151614150048
417,230.0900461185728
492,5.681853264528865
2,1, 1,15, 0,19, 0.00,60.00,WinterDesignDay
7,19.970971897824995
142,19.970971897824995
205,17.999737902088153
268,17.999737902088153
393,459.22859625055185
396,459.22859625055185
399,353.2677421794617
402,353.2677421794617
403,527.2238060894633
417,150.63537316841808
492,2.8165142441445328
2,1, 1,15, 0,20, 0.00,60.00,WinterDesignDay
7,19.968575354408003
142,19.968575354408003
205,17.999532245755038
268,17.999532245755038
393,460.0696286602956
396,460.0696286602956
399,353.3290504569161
402,353.3290504569161
403,798.4195292768179
417,228.11986550766227
492,4.249102105925417
2,1, 1,15, 0,21, 0.00,60.00,WinterDesignDay
7,19.96583001228363
142,19.96583001228363
205,17.999891415717386
268,17.999891415717386
393,460.1103360693667
396,460.1103360693667
399,353.52212093662973
402,353.52212093662973
403,823.357779830268
417,235.24507995150512
492,4.249066739350693
2,1, 1,15, 0,22, 0.00,60.00,WinterDesignDay
7,19.977938541524132
142,19.977938541524132
205,18.000121504675203
268,18.000121504675203
393,462.3007787669518
396,462.3007787669518
399,353.5033293613478
402,353.5033293613478
403,1024.0630590878552
417,292.58944545367297
492,8.547008547008547
2,1, 1,15, 0,23, 0.00,60.00,WinterDesignDay
7,19.96834782027149
142,19.96834782027149
205,17.999447143292322
268,17.999447143292322
393,459.25998998444135
396,459.25998998444135
399,353.36600923882173
402,353.36600923882173
403,513.5512079196825
417,146.7289165484807
492,2.816547288974443
2,1, 1,15, 0,24, 0.00,60.00,WinterDesignDay
7,19.961679142062234
142,19.961679142062234
205,17.999626640044948
268,17.999626640044948
393,459.394870238909
396,459.394870238909
399,353.46243657113075
402,353.46243657113075
403,722.7999967455146
417,206.51428478443276
492,2.8160416418501524
End of Data
 Number of Records Written=        1056
