Program Version,EnergyPlus, Version 24.2.0-94a887817b, YMD=2025.12.10 13:32
1,5,Environment Title[],Latitude[deg],Longitude[deg],Time Zone[],Elevation[m]
2,8,Day of Simulation[],Month[],Day of Month[],DST Indicator[1=yes 0=no],Hour[],StartMinute[],EndMinute[],DayType
3,5,Cumulative Day of Simulation[],Month[],Day of Month[],DST Indicator[1=yes 0=no],DayType  ! When Daily Report Variables Requested
4,2,Cumulative Days of Simulation[],Month[]  ! When Monthly Report Variables Requested
5,1,Cumulative Days of Simulation[] ! When Run Period Report Variables Requested
6,1,Calendar Year of Simulation[] ! When Annual Report Variables Requested
7,1,Environment,Site Outdoor Air Drybulb Temperature [C] !Hourly
8,1,Z1,Zone Air Temperature [C] !Hourly
143,1,Z2,Zone Air Temperature [C] !Hourly
206,1,Z3,Zone Air Temperature [C] !Hourly
269,1,Z4,Zone Air Temperature [C] !Hourly
332,1,HOT WATER LOOP,Plant Supply Side Outlet Temperature [C] !Hourly
395,1,Z1 RADIATOR,Baseboard Total Heating Rate [W] !Hourly
396,1,Z1 RADIATOR,Baseboard Hot Water Mass Flow Rate [kg/s] !Hourly
399,1,Z2 RADIATOR,Baseboard Total Heating Rate [W] !Hourly
400,1,Z2 RADIATOR,Baseboard Hot Water Mass Flow Rate [kg/s] !Hourly
403,1,Z3 RADIATOR,Baseboard Total Heating Rate [W] !Hourly
404,1,Z3 RADIATOR,Baseboard Hot Water Mass Flow Rate [kg/s] !Hourly
407,1,Z4 RADIATOR,Baseboard Total Heating Rate [W] !Hourly
408,1,Z4 RADIATOR,Baseboard Hot Water Mass Flow Rate [kg/s] !Hourly
409,1,HEAT PUMP,Heat Pump Load Side Heat Transfer Rate [W] !Hourly
423,1,HEAT PUMP,Heat Pump Load Side Inlet Temperature [C] !Hourly
424,1,HEAT PUMP,Heat Pump Electricity Rate [W] !Hourly
499,1,SUPPLY PUMP,Pump Electricity Rate [W] !Hourly
500,1,SUPPLY PUMP,Pump Fluid Heat Gain Rate [W] !Hourly
501,1,SUPPLY PUMP,Pump Mass Flow Rate [kg/s] !Hourly
529,1,Baseboard Total Heating Rate All Zones,PythonPlugin:OutputVariable [W] !Hourly
End of Data Dictionary
1,WINTER DESIGN DAY IN (MID) UK,  53.35,  -2.28,   0.00,  69.00
2,1, 1,15, 0, 1, 0.00,60.00,WinterDesignDay
7,-3.0
8,21.00020347058681
143,21.00020347058681
206,21.00020347058681
269,21.00020347058681
332,49.518998107706324
395,444.29638147524736
396,0.0292655625
399,444.29638147524736
400,0.0292655625
403,444.29638147524736
404,0.0292655625
407,444.29638147524736
408,0.0292655625
409,1774.9324992726654
423,46.252514513828785
424,739.4815561958917
499,1.9701947959351795
500,1.9701947959351795
501,0.12998674
529,1777.1855259009894
2,1, 1,15, 0, 2, 0.00,60.00,WinterDesignDay
7,-3.0
8,21.000006374723938
143,21.000006374723938
206,21.000006374723938
269,21.000006374723938
332,49.518964140939985
395,444.30170639589124
396,0.0292655625
399,444.30170639589124
400,0.0292655625
403,444.30170639589124
404,0.0292655625
407,444.30170639589124
408,0.0292655625
409,1774.958088260384
423,46.25243344076034
424,739.4916675097281
499,1.9701947249189686
500,1.9701947249189686
501,0.12998674
529,1777.206825583565
2,1, 1,15, 0, 3, 0.00,60.00,WinterDesignDay
7,-3.0
8,21.000406468491704
143,21.000406468491704
206,21.000406468491704
269,21.000406468491704
332,49.51892898810054
395,444.29225251297055
396,0.0292655625
399,444.29225251297055
400,0.0292655625
403,444.29225251297055
404,0.0292655625
407,444.29225251297055
408,0.0292655625
409,1774.9986376560407
423,46.2523236477643
424,739.5079925418866
499,1.9701946287456875
500,1.9701946287456875
501,0.12998674
529,1777.1690100518822
2,1, 1,15, 0, 4, 0.00,60.00,WinterDesignDay
7,-3.0
8,21.00055659842982
143,21.00055659842982
206,21.00055659842982
269,21.00055659842982
332,49.5188764832217
395,444.45031497909804
396,0.02938078125
399,444.45031497909804
400,0.02938078125
403,444.45031497909804
404,0.02938078125
407,444.45031497909804
408,0.02938078125
409,1775.475305062798
423,46.25139376512587
424,739.7057336795621
499,1.9701938142124944
500,1.9701938142124944
501,0.12998674
529,1777.8012599163922
2,1, 1,15, 0, 5, 0.00,60.00,WinterDesignDay
7,-3.0
8,21.000211794324002
143,21.000211794324002
206,21.000211794324002
269,21.000211794324002
332,49.51881025189358
395,444.2932567868529
396,0.0292655625
399,444.2932567868529
400,0.0292655625
403,444.2932567868529
404,0.0292655625
407,444.2932567868529
408,0.0292655625
409,1774.9198485756838
423,46.252349910723865
424,739.4732449781376
499,1.9701946517506421
500,1.9701946517506421
501,0.12998674
529,1777.1730271474116
2,1, 1,15, 0, 6, 0.00,60.00,WinterDesignDay
7,-3.0
8,20.999999564687688
143,20.999999564687688
206,20.999999564687688
269,20.999999564687688
332,49.51877526440789
395,444.2988170400356
396,0.0292655625
399,444.2988170400356
400,0.0292655625
403,444.2988170400356
404,0.0292655625
407,444.2988170400356
408,0.0292655625
409,1774.946504887071
423,46.25226585819116
424,739.4837844053357
499,1.9701945781245715
500,1.9701945781245715
501,0.12998674
529,1777.1952681601424
2,1, 1,15, 0, 7, 0.00,60.00,WinterDesignDay
7,-3.0
8,21.000388166814204
143,21.000388166814204
206,21.000388166814204
269,21.000388166814204
332,49.51874143894996
395,444.28957221465157
396,0.0292655625
399,444.28957221465157
400,0.0292655625
403,444.28957221465157
404,0.0292655625
407,444.28957221465157
408,0.0292655625
409,1774.987971296424
423,46.25215570333925
424,739.5005129027411
499,1.9701944816343357
500,1.9701944816343357
501,0.12998674
529,1777.1582888586063
2,1, 1,15, 0, 8, 0.00,60.00,WinterDesignDay
7,-3.0
8,21.0005298570838
143,21.0005298570838
206,21.0005298570838
269,21.0005298570838
332,49.5186920152735
395,444.4478233228812
396,0.02938078125
399,444.4478233228812
400,0.02938078125
403,444.4478233228812
404,0.02938078125
407,444.4478233228812
408,0.02938078125
409,1775.465448603803
423,46.25122740898911
424,739.6986405463783
499,1.9701936684925276
500,1.9701936684925276
501,0.12998674
529,1777.7912932915249
2,1, 1,15, 0, 9, 0.00,60.00,WinterDesignDay
7,-3.0
8,21.00017788912224
143,21.00017788912224
206,21.00017788912224
269,21.00017788912224
332,49.518630220502274
395,444.29095355071337
396,0.0292655625
399,444.29095355071337
400,0.0292655625
403,444.29095355071337
404,0.0292655625
407,444.29095355071337
408,0.0292655625
409,1774.91079581806
423,46.25218651575776
424,739.4665594364967
499,1.970194508624396
500,1.970194508624396
501,0.12998674
529,1777.1638142028535
2,1, 1,15, 0,10, 0.00,60.00,WinterDesignDay
7,-3.0
8,21.000347519341354
143,21.000347519341354
206,21.000347519341354
269,21.000347519341354
332,49.51860077036554
395,444.2884111164063
396,0.0292655625
399,444.2884111164063
400,0.0292655625
403,444.2884111164063
404,0.0292655625
407,444.2884111164063
408,0.0292655625
409,1774.9862801729296
423,46.25201811918181
424,739.4975313572835
499,1.9701943611171742
500,1.9701943611171742
501,0.12998674
529,1777.1536444656251
2,1, 1,15, 0,11, 0.00,60.00,WinterDesignDay
7,-3.0
8,21.000094876187124
143,21.000094876187124
206,21.000094876187124
269,21.000094876187124
332,49.51852333898847
395,444.29284401820786
396,0.0292655625
399,444.29284401820786
400,0.0292655625
403,444.29284401820786
404,0.0292655625
407,444.29284401820786
408,0.0292655625
409,1774.919284287589
423,46.25206399074037
424,739.4683660867552
499,1.9701944012982446
500,1.9701944012982446
501,0.12998674
529,1777.1713760728314
2,1, 1,15, 0,12, 0.00,60.00,WinterDesignDay
7,-3.0
8,21.000631131961164
143,21.000631131961164
206,21.000631131961164
269,21.000631131961164
332,49.518488809462525
395,444.44001888009194
396,0.02938078125
399,444.44001888009194
400,0.02938078125
403,444.44001888009194
404,0.02938078125
407,444.44001888009194
408,0.02938078125
409,1775.430702135391
423,46.25108812274431
424,739.6808743930235
499,1.9701935464845508
500,1.9701935464845508
501,0.12998674
529,1777.7600755203678
2,1, 1,15, 0,13, 0.00,60.00,WinterDesignDay
7,-3.0
8,21.00004247299921
143,21.00004247299921
206,21.00004247299921
269,21.00004247299921
332,49.5184268118591
395,444.2927793783376
396,0.0292655625
399,444.2927793783376
400,0.0292655625
403,444.2927793783376
404,0.0292655625
407,444.2927793783376
408,0.0292655625
409,1774.9215280569508
423,46.25196332048814
424,739.4677384491326
499,1.9701943131159223
500,1.9701943131159223
501,0.12998674
529,1777.1711175133505
2,1, 1,15, 0,14, 0.00,60.00,WinterDesignDay
7,-3.0
8,21.000390619737452
143,21.000390619737452
206,21.000390619737452
269,21.000390619737452
332,49.51838747403187
395,444.28388816847564
396,0.0292655625
399,444.28388816847564
400,0.0292655625
403,444.28388816847564
404,0.0292655625
407,444.28388816847564
408,0.0292655625
409,1774.9650422326995
423,46.25184388300687
424,739.4852307463666
499,1.970194208494569
500,1.970194208494569
501,0.12998674
529,1777.1355526739026
2,1, 1,15, 0,15, 0.00,60.00,WinterDesignDay
7,-3.0
8,21.000507693435214
143,21.000507693435214
206,21.000507693435214
269,21.000507693435214
332,49.51833809838644
395,444.44256422162954
396,0.02938078125
399,444.44256422162954
400,0.02938078125
403,444.44256422162954
404,0.02938078125
407,444.44256422162954
408,0.02938078125
409,1775.4444255907633
423,46.25091213172847
424,739.6841517331554
499,1.9701933923248864
500,1.9701933923248864
501,0.12998674
529,1777.7702568865182
2,1, 1,15, 0,16, 0.00,60.00,WinterDesignDay
7,-3.0
8,21.000136331635375
143,21.000136331635375
206,21.000136331635375
269,21.000136331635375
332,49.51828027894844
395,444.2860828502496
396,0.0292655625
399,444.2860828502496
400,0.0292655625
403,444.2860828502496
404,0.0292655625
407,444.2860828502496
408,0.0292655625
409,1774.8914574541266
423,46.25187211210738
424,739.4528386285017
499,1.9701942332217595
500,1.9701942332217595
501,0.12998674
529,1777.1443314009985
2,1, 1,15, 0,17, 0.00,60.00,WinterDesignDay
7,-3.0
8,21.000290806141603
143,21.000290806141603
206,21.000290806141603
269,21.000290806141603
332,49.518257774486884
395,444.28388591469127
396,0.0292655625
399,444.28388591469127
400,0.0292655625
403,444.28388591469127
404,0.0292655625
407,444.28388591469127
408,0.0292655625
409,1774.9684255033565
423,46.25170793234669
424,739.484540866516
499,1.9701940894083076
500,1.9701940894083076
501,0.12998674
529,1777.135543658765
2,1, 1,15, 0,18, 0.00,60.00,WinterDesignDay
7,-3.0
8,21.000557857126964
143,21.000557857126964
206,21.000557857126964
269,21.000557857126964
332,49.51818964010964
395,444.4389110321991
396,0.02938078125
399,444.4389110321991
400,0.02938078125
403,444.4389110321991
404,0.02938078125
407,444.4389110321991
408,0.02938078125
409,1775.4267002203574
423,46.25079627640786
424,739.6743633888041
499,1.9701932908412396
500,1.9701932908412396
501,0.12998674
529,1777.7556441287963
2,1, 1,15, 0,19, 0.00,60.00,WinterDesignDay
7,-3.0
8,21.000167933162697
143,21.000167933162697
206,21.000167933162697
269,21.000167933162697
332,49.51812208967371
395,444.2830120010807
396,0.0292655625
399,444.2830120010807
400,0.0292655625
403,444.2830120010807
404,0.0292655625
407,444.2830120010807
408,0.0292655625
409,1774.8788108830856
423,46.25173717353282
424,739.4450094463025
499,1.9701941150220155
500,1.9701941150220155
501,0.12998674
529,1777.1320480043228
2,1, 1,15, 0,20, 0.00,60.00,WinterDesignDay
7,-3.0
8,21.000302841024986
143,21.000302841024986
206,21.000302841024986
269,21.000302841024986
332,49.518094853886964
395,444.281089349148
396,0.0292655625
399,444.281089349148
400,0.0292655625
403,444.281089349148
404,0.0292655625
407,444.281089349148
408,0.0292655625
409,1774.9570871737742
423,46.251565859344176
424,739.4771800361741
499,1.970193964959162
500,1.970193964959162
501,0.12998674
529,1777.124357396592
2,1, 1,15, 0,21, 0.00,60.00,WinterDesignDay
7,-3.0
8,21.00055701974901
143,21.00055701974901
206,21.00055701974901
269,21.00055701974901
332,49.5180250342204
395,444.4363162160423
396,0.02938078125
399,444.4363162160423
400,0.02938078125
403,444.4363162160423
404,0.02938078125
407,444.4363162160423
408,0.02938078125
409,1775.4162739748294
423,46.250650835385414
424,739.6673545888946
499,1.9701931634419731
500,1.9701931634419731
501,0.12998674
529,1777.7452648641693
2,1, 1,15, 0,22, 0.00,60.00,WinterDesignDay
7,-3.0
8,21.000156695138525
143,21.000156695138525
206,21.000156695138525
269,21.000156695138525
332,49.51795785596981
395,444.28059366136046
396,0.0292655625
399,444.28059366136046
400,0.0292655625
403,444.28059366136046
404,0.0292655625
407,444.28059366136046
408,0.0292655625
409,1774.8691566753141
423,46.25159068869763
424,739.4383291437498
499,1.970193986708312
500,1.970193986708312
501,0.12998674
529,1777.1223746454418
2,1, 1,15, 0,23, 0.00,60.00,WinterDesignDay
7,-3.0
8,21.00028328740955
143,21.00028328740955
206,21.00028328740955
269,21.00028328740955
332,49.51793258081568
395,444.27883094960777
396,0.0292655625
399,444.27883094960777
400,0.0292655625
403,444.27883094960777
404,0.0292655625
407,444.27883094960777
408,0.0292655625
409,1774.948126768738
423,46.25142005429433
424,739.4708204012403
499,1.970193837240938
500,1.970193837240938
501,0.12998674
529,1777.115323798431
2,1, 1,15, 0,24, 0.00,60.00,WinterDesignDay
7,-3.0
8,21.00053090490247
143,21.00053090490247
206,21.00053090490247
269,21.00053090490247
332,49.51786601458085
395,444.4342197298223
396,0.02938078125
399,444.4342197298223
400,0.02938078125
403,444.4342197298223
404,0.02938078125
407,444.4342197298223
408,0.02938078125
409,1775.40800725105
423,46.250507009285904
424,739.661335955638
499,1.9701930374573164
500,1.9701930374573164
501,0.12998674
529,1777.7368789192892
End of Data
 Number of Records Written=         504
