Program Version,EnergyPlus, Version 24.2.0-94a887817b, YMD=2026.01.14 16:15
1,5,Environment Title[],Latitude[deg],Longitude[deg],Time Zone[],Elevation[m]
2,8,Day of Simulation[],Month[],Day of Month[],DST Indicator[1=yes 0=no],Hour[],StartMinute[],EndMinute[],DayType
3,5,Cumulative Day of Simulation[],Month[],Day of Month[],DST Indicator[1=yes 0=no],DayType  ! When Daily Report Variables Requested
4,2,Cumulative Days of Simulation[],Month[]  ! When Monthly Report Variables Requested
5,1,Cumulative Days of Simulation[] ! When Run Period Report Variables Requested
6,1,Calendar Year of Simulation[] ! When Annual Report Variables Requested
7,1,Environment,Site Outdoor Air Drybulb Temperature [C] !Hourly
8,1,Z1,Zone Operative Temperature [C] !Hourly
9,1,Z2,Zone Operative Temperature [C] !Hourly
10,1,Z3,Zone Operative Temperature [C] !Hourly
11,1,Z4,Zone Operative Temperature [C] !Hourly
12,1,Z1,Zone Air Temperature [C] !Hourly
147,1,Z2,Zone Air Temperature [C] !Hourly
210,1,Z3,Zone Air Temperature [C] !Hourly
273,1,Z4,Zone Air Temperature [C] !Hourly
336,1,HOT WATER LOOP,Plant Supply Side Outlet Temperature [C] !Hourly
399,1,Z1 RADIATOR,Baseboard Total Heating Rate [W] !Hourly
400,1,Z1 RADIATOR,Baseboard Hot Water Mass Flow Rate [kg/s] !Hourly
403,1,Z2 RADIATOR,Baseboard Total Heating Rate [W] !Hourly
404,1,Z2 RADIATOR,Baseboard Hot Water Mass Flow Rate [kg/s] !Hourly
407,1,Z3 RADIATOR,Baseboard Total Heating Rate [W] !Hourly
408,1,Z3 RADIATOR,Baseboard Hot Water Mass Flow Rate [kg/s] !Hourly
411,1,Z4 RADIATOR,Baseboard Total Heating Rate [W] !Hourly
412,1,Z4 RADIATOR,Baseboard Hot Water Mass Flow Rate [kg/s] !Hourly
413,1,HEAT PUMP,Heat Pump Load Side Heat Transfer Rate [W] !Hourly
427,1,HEAT PUMP,Heat Pump Load Side Inlet Temperature [C] !Hourly
428,1,HEAT PUMP,Heat Pump Electricity Rate [W] !Hourly
503,1,SUPPLY PUMP,Pump Electricity Rate [W] !Hourly
504,1,SUPPLY PUMP,Pump Fluid Heat Gain Rate [W] !Hourly
505,1,SUPPLY PUMP,Pump Mass Flow Rate [kg/s] !Hourly
533,1,Baseboard Total Heating Rate All Zones,PythonPlugin:OutputVariable [W] !Hourly
End of Data Dictionary
1,WINTER DESIGN DAY IN (MID) UK,  53.35,  -2.28,   0.00,  69.00
2,1, 1,15, 0, 1, 0.00,60.00,WinterDesignDay
7,-3.0
8,20.127991139113753
9,20.127991139113753
10,20.127991139112847
11,20.127991139112847
12,20.991755378216418
147,20.991755378216418
210,20.991755378215583
273,20.991755378215583
336,50.02290367827773
399,452.59120663628016
400,0.029496
403,452.59120663628016
404,0.029496
407,452.5912066362936
408,0.029496
411,452.5912066362936
412,0.029496
413,1808.153550416065
427,46.69535247222469
428,761.6311661162706
503,1.9705827774679794
504,1.9705827774679794
505,0.12998674
533,1810.3648265451475
2,1, 1,15, 0, 2, 0.00,60.00,WinterDesignDay
7,-3.0
8,20.12879151123927
9,20.12879151123927
10,20.12879151123868
11,20.12879151123868
12,20.992561486471597
147,20.992561486471597
210,20.992561486471008
273,20.992561486471008
336,50.024206619513606
399,452.5989150078608
400,0.029496
403,452.5989150078608
404,0.029496
407,452.5989150078715
408,0.029496
411,452.5989150078715
412,0.029496
413,1808.179676249788
427,46.6966075340898
428,761.6636553110051
503,1.9705838772765603
504,1.9705838772765603
505,0.12998674
533,1810.3956600314648
2,1, 1,15, 0, 3, 0.00,60.00,WinterDesignDay
7,-3.0
8,20.129566095550445
9,20.129566095550445
10,20.129566095550253
11,20.129566095550253
12,20.993337257726388
147,20.993337257726388
210,20.99333725772616
273,20.99333725772616
336,50.0253811866745
399,452.60508564443694
400,0.029496
403,452.60508564443694
404,0.029496
407,452.605085644442
408,0.029496
411,452.605085644442
412,0.029496
413,1808.1998264980089
427,46.697745199802725
428,761.6915111371987
503,1.9705848742121528
504,1.9705848742121528
505,0.12998674
533,1810.4203425777578
2,1, 1,15, 0, 4, 0.00,60.00,WinterDesignDay
7,-3.0
8,20.130313103567747
9,20.130313103567747
10,20.130313103567786
11,20.130313103567786
12,20.994081284712067
147,20.994081284712067
210,20.994081284712067
273,20.994081284712067
336,50.02643226252627
399,452.60981776659645
400,0.029496
403,452.60981776659645
404,0.029496
407,452.6098177665969
408,0.029496
411,452.6098177665969
412,0.029496
413,1808.214401239518
427,46.69876961680322
428,761.7149823805917
503,1.970585771908849
504,1.970585771908849
505,0.12998674
533,1810.4392710663867
2,1, 1,15, 0, 5, 0.00,60.00,WinterDesignDay
7,-3.0
8,20.131031040592774
9,20.131031040592774
10,20.13103104059273
11,20.13103104059273
12,20.994792442604336
147,20.994792442604336
210,20.994792442604293
273,20.994792442604293
336,50.02736494930707
399,452.6132094124498
400,0.029496
403,452.6132094124498
404,0.029496
407,452.6132094124505
408,0.029496
411,452.6132094124505
412,0.029496
413,1808.2238014080322
427,46.699685151374105
428,761.7343218631289
503,1.9705865741925561
504,1.9705865741925561
505,0.12998674
533,1810.4528376498006
2,1, 1,15, 0, 6, 0.00,60.00,WinterDesignDay
7,-3.0
8,20.13171868811221
9,20.13171868811221
10,20.13171868811215
11,20.13171868811215
12,20.995469870532727
147,20.995469870532727
210,20.995469870532673
273,20.995469870532673
336,50.02818452390661
399,452.6153570296274
400,0.029496
403,452.6153570296274
404,0.029496
407,452.6153570296282
408,0.029496
411,452.6153570296282
412,0.029496
413,1808.2284237162326
427,46.70049634748244
428,761.7497835588176
503,1.9705872850449278
504,1.9705872850449278
505,0.12998674
533,1810.461428118511
2,1, 1,15, 0, 7, 0.00,60.00,WinterDesignDay
7,-3.0
8,20.132375087847485
9,20.132375087847485
10,20.13237508784745
11,20.13237508784745
12,20.996112956001237
147,20.996112956001237
210,20.996112956001202
273,20.996112956001202
336,50.02889639593476
399,452.61635567259515
400,0.029496
403,452.61635567259515
404,0.029496
407,452.6163556725954
408,0.029496
411,452.6163556725954
412,0.029496
413,1808.2286426341952
427,46.70120792989917
428,761.7616143035468
503,1.9705879086060936
504,1.9705879086060936
505,0.12998674
533,1810.465422690381
2,1, 1,15, 0, 8, 0.00,60.00,WinterDesignDay
7,-3.0
8,20.132999523278052
9,20.132999523278052
10,20.13299952327803
11,20.13299952327803
12,20.996721314003167
147,20.996721314003167
210,20.996721314003146
273,20.996721314003146
336,50.02950606840997
399,452.6162978074044
400,0.029496
403,452.6162978074044
404,0.029496
407,452.61629780740486
408,0.029496
411,452.61629780740486
412,0.029496
413,1808.2248364829857
427,46.70182470506468
428,761.7700641327767
503,1.9705884490877859
504,1.9705884490877859
505,0.12998674
533,1810.4651912296185
2,1, 1,15, 0, 9, 0.00,60.00,WinterDesignDay
7,-3.0
8,20.133591503111155
9,20.133591503111155
10,20.1335915031111
11,20.1335915031111
12,20.99729477097715
147,20.99729477097715
210,20.997294770977096
273,20.997294770977096
336,50.03001910169277
399,452.6152736471274
400,0.029496
403,452.6152736471274
404,0.029496
407,452.61527364712805
408,0.029496
411,452.61527364712805
412,0.029496
413,1808.2173669363856
427,46.70235156845514
428,761.7753770455552
503,1.9705889107797891
504,1.9705889107797891
505,0.12998674
533,1810.4610945885108
2,1, 1,15, 0,10, 0.00,60.00,WinterDesignDay
7,-3.0
8,20.134150744727155
9,20.134150744727155
10,20.13415074472711
11,20.13415074472711
12,20.99783334751253
147,20.99783334751253
210,20.997833347512483
273,20.997833347512483
336,50.03044107997777
399,452.6133706297565
400,0.029496
403,452.6133706297565
404,0.029496
407,452.61337062975736
408,0.029496
411,452.61337062975736
412,0.029496
413,1808.2065852513174
427,46.70279345782872
428,761.7777930711217
503,1.970589298008968
504,1.970589298008968
505,0.12998674
533,1810.4534825190276
2,1, 1,15, 0,11, 0.00,60.00,WinterDesignDay
7,-3.0
8,20.13467715820761
9,20.13467715820761
10,20.13467715820761
11,20.13467715820761
12,20.99833724242655
147,20.99833724242655
210,20.998337242426548
273,20.998337242426548
336,50.03077758055863
399,452.6106734043404
400,0.029496
403,452.6106734043404
404,0.029496
407,452.610673404341
408,0.029496
411,452.610673404341
412,0.029496
413,1808.1928261151884
427,46.703155337826466
428,761.7775451649953
503,1.970589615125769
504,1.970589615125769
505,0.12998674
533,1810.4426936173627
2,1, 1,15, 0,12, 0.00,60.00,WinterDesignDay
7,-3.0
8,20.13517082951042
9,20.13517082951042
10,20.1351708295106
11,20.1351708295106
12,20.99880681480837
147,20.99880681480837
210,20.998806814808507
273,20.998806814808507
336,50.031034145681154
399,452.60726327328973
400,0.029496
403,452.60726327328973
404,0.029496
407,452.6072632732884
408,0.029496
411,452.6072632732884
412,0.029496
413,1808.1764183827227
427,46.70344214380435
428,761.7748632636099
503,1.9705898664549966
504,1.9705898664549966
505,0.12998674
533,1810.4290530931564
2,1, 1,15, 0,13, 0.00,60.00,WinterDesignDay
7,-3.0
8,20.135632006592573
9,20.135632006592573
10,20.135632006593
11,20.135632006593
12,20.999242571567788
147,20.999242571567788
210,20.999242571568153
273,20.999242571568153
336,50.031216257130936
399,452.6032186351731
400,0.029496
403,452.6032186351731
404,0.029496
407,452.6032186351685
408,0.029496
411,452.6032186351685
412,0.029496
413,1808.1576616485854
427,46.70365880615539
428,761.7699639914566
503,1.9705900563171261
504,1.9705900563171261
505,0.12998674
533,1810.4128745406829
2,1, 1,15, 0,14, 0.00,60.00,WinterDesignDay
7,-3.0
8,20.136061082333086
9,20.136061082333086
10,20.136061082333587
11,20.136061082333587
12,20.9996451481626
147,20.9996451481626
210,20.999645148163054
273,20.999645148163054
336,50.03132931300775
399,452.59861406097025
400,0.029496
403,452.59861406097025
404,0.029496
407,452.59861406096303
408,0.029496
411,452.59861406096303
412,0.029496
413,1808.1368623856629
427,46.7038101614488
428,761.7630654994123
503,1.9705901889504276
504,1.9705901889504276
505,0.12998674
533,1810.3944562438664
2,1, 1,15, 0,15, 0.00,60.00,WinterDesignDay
7,-3.0
8,20.136458581904844
9,20.136458581904844
10,20.136458581904968
11,20.136458581904968
12,21.000015298103836
147,21.000015298103836
210,21.000015298103996
273,21.000015298103996
336,50.03137860731351
399,452.5935210233359
400,0.029496
403,452.5935210233359
404,0.029496
407,452.59352102333196
408,0.029496
411,452.59352102333196
412,0.029496
413,1808.1142967316405
427,46.703900998997526
428,761.7543714472888
503,1.9705902685517755
504,1.9705902685517755
505,0.12998674
533,1810.3740840933356
2,1, 1,15, 0,16, 0.00,60.00,WinterDesignDay
7,-3.0
8,20.136825148065718
9,20.136825148065718
10,20.136825148065256
11,20.136825148065256
12,21.00035387703465
147,21.00035387703465
210,21.0003538770343
273,21.0003538770343
336,50.03136931139911
399,452.5880071532297
400,0.029496
403,452.5880071532297
404,0.029496
407,452.5880071532332
408,0.029496
411,452.5880071532332
412,0.029496
413,1808.09023226737
427,46.70393599454135
428,761.7440798704348
503,1.9705902992185276
504,1.9705902992185276
505,0.12998674
533,1810.352028612926
2,1, 1,15, 0,17, 0.00,60.00,WinterDesignDay
7,-3.0
8,20.137161527680576
9,20.137161527680576
10,20.137161527679403
11,20.137161527679403
12,21.000661830028676
147,21.000661830028676
210,21.000661830027692
273,21.000661830027692
336,50.03130645795635
399,452.5821367089364
400,0.029496
403,452.5821367089364
404,0.029496
407,452.58213670894906
408,0.029496
411,452.58213670894906
412,0.029496
413,1808.064917711798
427,46.70391972383679
428,761.7323785721383
503,1.9705902849604358
504,1.9705902849604358
505,0.12998674
533,1810.328546835771
2,1, 1,15, 0,18, 0.00,60.00,WinterDesignDay
7,-3.0
8,20.137468559453445
9,20.137468559453445
10,20.137468559451683
11,20.137468559451683
12,21.000940179223484
147,21.000940179223484
210,21.000940179221924
273,21.000940179221924
336,50.03119492684401
399,452.5759701117785
400,0.029496
403,452.5759701117785
404,0.029496
407,452.5759701118006
408,0.029496
411,452.5759701118006
412,0.029496
413,1808.0385937898009
427,46.70385662682491
428,761.7194494667528
503,1.9705902296682425
504,1.9705902296682425
505,0.12998674
533,1810.3038804471578
2,1, 1,15, 0,19, 0.00,60.00,WinterDesignDay
7,-3.0
8,20.13774716217951
9,20.13774716217951
10,20.13774716217772
11,20.13774716217772
12,21.001190013096405
147,21.001190013096405
210,21.001190013094757
273,21.001190013094757
336,50.031039433008885
399,452.5695644335878
400,0.029496
403,452.5695644335878
404,0.029496
407,452.56956443361383
408,0.029496
411,452.56956443361383
412,0.029496
413,1808.0114753836722
427,46.7037510255264
428,761.7054608596286
503,1.9705901371293595
504,1.9705901371293595
505,0.12998674
533,1810.2782577344033
2,1, 1,15, 0,20, 0.00,60.00,WinterDesignDay
7,-3.0
8,20.13799832147214
9,20.13799832147214
10,20.137998321470803
11,20.137998321470803
12,21.00141247195576
147,21.00141247195576
210,21.00141247195447
273,21.00141247195447
336,50.03084451624689
399,452.5629727691129
400,0.029496
403,452.5629727691129
404,0.029496
407,452.56297276913506
408,0.029496
411,452.56297276913506
412,0.029496
413,1807.983774442433
427,46.70360706259078
428,761.6905769288658
503,1.970590010974019
504,1.970590010974019
505,0.12998674
533,1810.2518910764957
2,1, 1,15, 0,21, 0.00,60.00,WinterDesignDay
7,-3.0
8,20.13822308097146
9,20.13822308097146
10,20.13822308097091
11,20.13822308097091
12,21.001608741286557
147,21.001608741286557
210,21.001608741285942
273,21.001608741285942
336,50.03061453289041
399,452.55624482831325
400,0.029496
403,452.55624482831325
404,0.029496
407,452.5562448283255
408,0.029496
411,452.5562448283255
412,0.029496
413,1807.9556868920808
427,46.70342874377886
428,761.674952072795
503,1.970589854712498
504,1.970589854712498
505,0.12998674
533,1810.2249793132773
2,1, 1,15, 0,22, 0.00,60.00,WinterDesignDay
7,-3.0
8,20.138422530813113
9,20.138422530813113
10,20.13842253081311
11,20.13842253081311
12,21.001780039782165
147,21.001780039782165
210,21.001780039782084
273,21.001780039782084
336,50.030353648975
399,452.54942681658713
400,0.029496
403,452.54942681658713
404,0.029496
407,452.54942681658986
408,0.029496
411,452.54942681658986
412,0.029496
413,1807.927384989479
427,46.70321990836394
428,761.6587275756283
503,1.9705896717091826
504,1.9705896717091826
505,0.12998674
533,1810.1977072663537
2,1, 1,15, 0,23, 0.00,60.00,WinterDesignDay
7,-3.0
8,20.1385977991926
9,20.1385977991926
10,20.138597799192603
11,20.138597799192603
12,21.001927611972846
147,21.001927611972846
210,21.001927611972835
273,21.001927611972835
336,50.03006583500218
399,452.5425616327633
400,0.029496
403,452.5425616327633
404,0.029496
407,452.5425616327633
408,0.029496
411,452.5425616327633
412,0.029496
413,1807.8990314685318
427,46.70298424038131
428,761.6420374805504
503,1.9705894651924203
504,1.9705894651924203
505,0.12998674
533,1810.1702465310532
2,1, 1,15, 0,24, 0.00,60.00,WinterDesignDay
7,-3.0
8,20.138750042198424
9,20.138750042198424
10,20.13875004219798
11,20.13875004219798
12,21.002052717255552
147,21.002052717255552
210,21.00205271725518
273,21.00205271725518
336,50.02975486198398
399,452.5356883834639
400,0.029496
403,452.5356883834639
404,0.029496
407,452.535688383468
408,0.029496
411,452.535688383468
412,0.029496
413,1807.8707740534828
427,46.70272522057254
428,761.6250062129147
503,1.9705892382124126
504,1.9705892382124126
505,0.12998674
533,1810.142753533864
End of Data
 Number of Records Written=         600
