Program Version,EnergyPlus, Version 24.2.0-94a887817b, YMD=2025.06.18 11:45
1,5,Environment Title[],Latitude[deg],Longitude[deg],Time Zone[],Elevation[m]
2,8,Day of Simulation[],Month[],Day of Month[],DST Indicator[1=yes 0=no],Hour[],StartMinute[],EndMinute[],DayType
3,5,Cumulative Day of Simulation[],Month[],Day of Month[],DST Indicator[1=yes 0=no],DayType  ! When Daily Report Variables Requested
4,2,Cumulative Days of Simulation[],Month[]  ! When Monthly Report Variables Requested
5,1,Cumulative Days of Simulation[] ! When Run Period Report Variables Requested
6,1,Calendar Year of Simulation[] ! When Annual Report Variables Requested
7,1,ZONE ONE,Zone Air Temperature [C] !Hourly
8,1,ZONE ONE,Zone Air System Sensible Heating Energy [J] !Hourly
142,1,ZONE ONE,Zone Predicted Sensible Load to Setpoint Heat Transfer Rate [W] !Hourly
205,1,RADIATOR,Baseboard Total Heating Rate [W] !Hourly
End of Data Dictionary
1,SUMMER DESIGN DAY IN SALFORD ENERGY HOUSE 1.0 (01-01:31-12) JUN HVAC Sizing Pass 1,  53.35,  -2.28,   0.00,  69.00
2,1, 6,15, 1, 1, 0.00,60.00,SummerDesignDay
7,20.999944101536908
8,570500.6022501719
142,158.51733532817343
205,158.47238951393666
2,1, 6,15, 1, 2, 0.00,60.00,SummerDesignDay
7,20.999995414872444
8,654469.7194397994
142,181.82462942423808
205,181.79714428883318
2,1, 6,15, 1, 3, 0.00,60.00,SummerDesignDay
7,20.999999818253286
8,723119.3900006262
142,200.87441333486822
205,200.86649722239616
2,1, 6,15, 1, 4, 0.00,60.00,SummerDesignDay
7,20.9999713330714
8,783655.6559414983
142,217.69717730110642
205,217.68212665041622
2,1, 6,15, 1, 5, 0.00,60.00,SummerDesignDay
7,21.000034052936677
8,832173.9225148982
142,231.10599078460746
205,231.15942292080507
2,1, 6,15, 1, 6, 0.00,60.00,SummerDesignDay
7,20.999937369101524
8,822489.1907469091
142,228.47830085721216
205,228.46921965191916
2,1, 6,15, 1, 7, 0.00,60.00,SummerDesignDay
7,20.99999564502514
8,720281.068344706
142,200.11317900183985
205,200.0780745401961
2,1, 6,15, 1, 8, 0.00,60.00,SummerDesignDay
7,20.999986369384807
8,453924.20281102275
142,126.09795605277759
205,126.09005633639521
2,1, 6,15, 1, 9, 0.00,60.00,SummerDesignDay
7,21.016194613544023
8,73368.35818976801
142,-6.082333998606373
205,20.380099497157783
2,1, 6,15, 1,10, 0.00,60.00,SummerDesignDay
7,21.265551908335546
8,0.0
142,-302.4007097963172
205,0.0
2,1, 6,15, 1,11, 0.00,60.00,SummerDesignDay
7,21.895651818727693
8,0.0
142,-1136.5787408992624
205,0.0
2,1, 6,15, 1,12, 0.00,60.00,SummerDesignDay
7,22.687594503406384
8,0.0
142,-2239.558637752712
205,0.0
2,1, 6,15, 1,13, 0.00,60.00,SummerDesignDay
7,23.45955714222474
8,0.0
142,-3333.6194979596867
205,0.0
2,1, 6,15, 1,14, 0.00,60.00,SummerDesignDay
7,24.14354413802326
8,0.0
142,-4311.5414081340905
205,0.0
2,1, 6,15, 1,15, 0.00,60.00,SummerDesignDay
7,24.668016557854678
8,0.0
142,-5078.792323080579
205,0.0
2,1, 6,15, 1,16, 0.00,60.00,SummerDesignDay
7,24.940013119620296
8,0.0
142,-5508.329628248122
205,0.0
2,1, 6,15, 1,17, 0.00,60.00,SummerDesignDay
7,24.934309894155433
8,0.0
142,-7879.190905725613
205,0.0
2,1, 6,15, 1,18, 0.00,60.00,SummerDesignDay
7,24.74244164416012
8,0.0
142,-8292.09937182629
205,0.0
2,1, 6,15, 1,19, 0.00,60.00,SummerDesignDay
7,24.36062647573415
8,0.0
142,-7513.017130395363
205,0.0
2,1, 6,15, 1,20, 0.00,60.00,SummerDesignDay
7,23.79803344755102
8,0.0
142,-6318.208522830275
205,0.0
2,1, 6,15, 1,21, 0.00,60.00,SummerDesignDay
7,23.16645488797073
8,0.0
142,-4943.405605926639
205,0.0
2,1, 6,15, 1,22, 0.00,60.00,SummerDesignDay
7,22.517722305702005
8,0.0
142,-3521.5902771415967
205,0.0
2,1, 6,15, 1,23, 0.00,60.00,SummerDesignDay
7,21.87241471914362
8,0.0
142,-2097.290883191503
205,0.0
2,1, 6,15, 1,24, 0.00,60.00,SummerDesignDay
7,21.256313206251455
8,0.0
142,-732.1328060842716
205,0.0
1,WINTER DESIGN DAY IN (MID) UK HVAC Sizing Pass 1,  53.35,  -2.28,   0.00,  69.00
2,1, 1,15, 0, 1, 0.00,60.00,WinterDesignDay
7,21.103724235986462
8,7222943.617193269
142,1726.017951718247
205,2006.3732269981301
2,1, 1,15, 0, 2, 0.00,60.00,WinterDesignDay
7,21.103724235986462
8,7222943.617193269
142,1726.017951718247
205,2006.3732269981301
2,1, 1,15, 0, 3, 0.00,60.00,WinterDesignDay
7,21.103724235986462
8,7222943.617193269
142,1726.017951718247
205,2006.3732269981301
2,1, 1,15, 0, 4, 0.00,60.00,WinterDesignDay
7,21.103724235986462
8,7222943.617193269
142,1726.017951718247
205,2006.3732269981301
2,1, 1,15, 0, 5, 0.00,60.00,WinterDesignDay
7,21.103724235986462
8,7222943.617193269
142,1726.017951718247
205,2006.3732269981301
2,1, 1,15, 0, 6, 0.00,60.00,WinterDesignDay
7,21.103724235986462
8,7222943.617193269
142,1726.017951718247
205,2006.3732269981301
2,1, 1,15, 0, 7, 0.00,60.00,WinterDesignDay
7,21.103724235986462
8,7222943.617193269
142,1726.017951718247
205,2006.3732269981301
2,1, 1,15, 0, 8, 0.00,60.00,WinterDesignDay
7,21.103724235986462
8,7222943.617193269
142,1726.017951718247
205,2006.3732269981301
2,1, 1,15, 0, 9, 0.00,60.00,WinterDesignDay
7,21.103724235986462
8,7222943.617193269
142,1726.017951718247
205,2006.3732269981301
2,1, 1,15, 0,10, 0.00,60.00,WinterDesignDay
7,21.103724235986462
8,7222943.617193269
142,1726.017951718247
205,2006.3732269981301
2,1, 1,15, 0,11, 0.00,60.00,WinterDesignDay
7,21.103724235986462
8,7222943.617193269
142,1726.017951718247
205,2006.3732269981301
2,1, 1,15, 0,12, 0.00,60.00,WinterDesignDay
7,21.103724235986462
8,7222943.617193269
142,1726.017951718247
205,2006.3732269981301
2,1, 1,15, 0,13, 0.00,60.00,WinterDesignDay
7,21.103724235986462
8,7222943.617193269
142,1726.017951718247
205,2006.3732269981301
2,1, 1,15, 0,14, 0.00,60.00,WinterDesignDay
7,21.103724235986462
8,7222943.617193269
142,1726.017951718247
205,2006.3732269981301
2,1, 1,15, 0,15, 0.00,60.00,WinterDesignDay
7,21.103724235986462
8,7222943.617193269
142,1726.017951718247
205,2006.3732269981301
2,1, 1,15, 0,16, 0.00,60.00,WinterDesignDay
7,21.103724235986462
8,7222943.617193269
142,1726.017951718247
205,2006.3732269981301
2,1, 1,15, 0,17, 0.00,60.00,WinterDesignDay
7,21.103724235986462
8,7222943.617193269
142,1726.017951718247
205,2006.3732269981301
2,1, 1,15, 0,18, 0.00,60.00,WinterDesignDay
7,21.103724235986462
8,7222943.617193269
142,1726.017951718247
205,2006.3732269981301
2,1, 1,15, 0,19, 0.00,60.00,WinterDesignDay
7,21.103724235986462
8,7222943.617193269
142,1726.017951718247
205,2006.3732269981301
2,1, 1,15, 0,20, 0.00,60.00,WinterDesignDay
7,21.103724235986462
8,7222943.617193269
142,1726.017951718247
205,2006.3732269981301
2,1, 1,15, 0,21, 0.00,60.00,WinterDesignDay
7,21.103724235986462
8,7222943.617193269
142,1726.017951718247
205,2006.3732269981301
2,1, 1,15, 0,22, 0.00,60.00,WinterDesignDay
7,21.103724235986462
8,7222943.617193269
142,1726.017951718247
205,2006.3732269981301
2,1, 1,15, 0,23, 0.00,60.00,WinterDesignDay
7,21.103724235986462
8,7222943.617193269
142,1726.017951718247
205,2006.3732269981301
2,1, 1,15, 0,24, 0.00,60.00,WinterDesignDay
7,21.103724235986462
8,7222943.617193269
142,1726.017951718247
205,2006.3732269981301
1,SUMMER DESIGN DAY IN SALFORD ENERGY HOUSE 1.0 (01-01:31-12) JUN,  53.35,  -2.28,   0.00,  69.00
2,1, 6,15, 1, 1, 0.00,60.00,SummerDesignDay
7,20.999944101536908
8,570500.6022501719
142,158.51733532817343
205,158.47238951393666
2,1, 6,15, 1, 2, 0.00,60.00,SummerDesignDay
7,20.999995414872444
8,654469.7194397994
142,181.82462942423808
205,181.79714428883318
2,1, 6,15, 1, 3, 0.00,60.00,SummerDesignDay
7,20.999999818253286
8,723119.3900006262
142,200.87441333486822
205,200.86649722239616
2,1, 6,15, 1, 4, 0.00,60.00,SummerDesignDay
7,20.9999713330714
8,783655.6559414983
142,217.69717730110642
205,217.68212665041622
2,1, 6,15, 1, 5, 0.00,60.00,SummerDesignDay
7,21.000034052936677
8,832173.9225148982
142,231.10599078460746
205,231.15942292080507
2,1, 6,15, 1, 6, 0.00,60.00,SummerDesignDay
7,20.999937369101524
8,822489.1907469091
142,228.47830085721216
205,228.46921965191916
2,1, 6,15, 1, 7, 0.00,60.00,SummerDesignDay
7,20.99999564502514
8,720281.068344706
142,200.11317900183985
205,200.0780745401961
2,1, 6,15, 1, 8, 0.00,60.00,SummerDesignDay
7,20.999986369384807
8,453924.20281102275
142,126.09795605277759
205,126.09005633639521
2,1, 6,15, 1, 9, 0.00,60.00,SummerDesignDay
7,21.016194613544023
8,73368.35818976801
142,-6.082333998606373
205,20.380099497157783
2,1, 6,15, 1,10, 0.00,60.00,SummerDesignDay
7,21.265551908335546
8,0.0
142,-302.4007097963172
205,0.0
2,1, 6,15, 1,11, 0.00,60.00,SummerDesignDay
7,21.895651818727693
8,0.0
142,-1136.5787408992624
205,0.0
2,1, 6,15, 1,12, 0.00,60.00,SummerDesignDay
7,22.687594503406384
8,0.0
142,-2239.558637752712
205,0.0
2,1, 6,15, 1,13, 0.00,60.00,SummerDesignDay
7,23.45955714222474
8,0.0
142,-3333.6194979596867
205,0.0
2,1, 6,15, 1,14, 0.00,60.00,SummerDesignDay
7,24.14354413802326
8,0.0
142,-4311.5414081340905
205,0.0
2,1, 6,15, 1,15, 0.00,60.00,SummerDesignDay
7,24.668016557854678
8,0.0
142,-5078.792323080579
205,0.0
2,1, 6,15, 1,16, 0.00,60.00,SummerDesignDay
7,24.940013119620296
8,0.0
142,-5508.329628248122
205,0.0
2,1, 6,15, 1,17, 0.00,60.00,SummerDesignDay
7,24.934309894155433
8,0.0
142,-7879.190905725613
205,0.0
2,1, 6,15, 1,18, 0.00,60.00,SummerDesignDay
7,24.74244164416012
8,0.0
142,-8292.09937182629
205,0.0
2,1, 6,15, 1,19, 0.00,60.00,SummerDesignDay
7,24.36062647573415
8,0.0
142,-7513.017130395363
205,0.0
2,1, 6,15, 1,20, 0.00,60.00,SummerDesignDay
7,23.79803344755102
8,0.0
142,-6318.208522830275
205,0.0
2,1, 6,15, 1,21, 0.00,60.00,SummerDesignDay
7,23.16645488797073
8,0.0
142,-4943.405605926639
205,0.0
2,1, 6,15, 1,22, 0.00,60.00,SummerDesignDay
7,22.517722305702005
8,0.0
142,-3521.5902771415967
205,0.0
2,1, 6,15, 1,23, 0.00,60.00,SummerDesignDay
7,21.87241471914362
8,0.0
142,-2097.290883191503
205,0.0
2,1, 6,15, 1,24, 0.00,60.00,SummerDesignDay
7,21.256313206251455
8,0.0
142,-732.1328060842716
205,0.0
1,WINTER DESIGN DAY IN (MID) UK,  53.35,  -2.28,   0.00,  69.00
2,1, 1,15, 0, 1, 0.00,60.00,WinterDesignDay
7,21.103724235986462
8,7222943.617193269
142,1726.017951718247
205,2006.3732269981301
2,1, 1,15, 0, 2, 0.00,60.00,WinterDesignDay
7,21.103724235986462
8,7222943.617193269
142,1726.017951718247
205,2006.3732269981301
2,1, 1,15, 0, 3, 0.00,60.00,WinterDesignDay
7,21.103724235986462
8,7222943.617193269
142,1726.017951718247
205,2006.3732269981301
2,1, 1,15, 0, 4, 0.00,60.00,WinterDesignDay
7,21.103724235986462
8,7222943.617193269
142,1726.017951718247
205,2006.3732269981301
2,1, 1,15, 0, 5, 0.00,60.00,WinterDesignDay
7,21.103724235986462
8,7222943.617193269
142,1726.017951718247
205,2006.3732269981301
2,1, 1,15, 0, 6, 0.00,60.00,WinterDesignDay
7,21.103724235986462
8,7222943.617193269
142,1726.017951718247
205,2006.3732269981301
2,1, 1,15, 0, 7, 0.00,60.00,WinterDesignDay
7,21.103724235986462
8,7222943.617193269
142,1726.017951718247
205,2006.3732269981301
2,1, 1,15, 0, 8, 0.00,60.00,WinterDesignDay
7,21.103724235986462
8,7222943.617193269
142,1726.017951718247
205,2006.3732269981301
2,1, 1,15, 0, 9, 0.00,60.00,WinterDesignDay
7,21.103724235986462
8,7222943.617193269
142,1726.017951718247
205,2006.3732269981301
2,1, 1,15, 0,10, 0.00,60.00,WinterDesignDay
7,21.103724235986462
8,7222943.617193269
142,1726.017951718247
205,2006.3732269981301
2,1, 1,15, 0,11, 0.00,60.00,WinterDesignDay
7,21.103724235986462
8,7222943.617193269
142,1726.017951718247
205,2006.3732269981301
2,1, 1,15, 0,12, 0.00,60.00,WinterDesignDay
7,21.103724235986462
8,7222943.617193269
142,1726.017951718247
205,2006.3732269981301
2,1, 1,15, 0,13, 0.00,60.00,WinterDesignDay
7,21.103724235986462
8,7222943.617193269
142,1726.017951718247
205,2006.3732269981301
2,1, 1,15, 0,14, 0.00,60.00,WinterDesignDay
7,21.103724235986462
8,7222943.617193269
142,1726.017951718247
205,2006.3732269981301
2,1, 1,15, 0,15, 0.00,60.00,WinterDesignDay
7,21.103724235986462
8,7222943.617193269
142,1726.017951718247
205,2006.3732269981301
2,1, 1,15, 0,16, 0.00,60.00,WinterDesignDay
7,21.103724235986462
8,7222943.617193269
142,1726.017951718247
205,2006.3732269981301
2,1, 1,15, 0,17, 0.00,60.00,WinterDesignDay
7,21.103724235986462
8,7222943.617193269
142,1726.017951718247
205,2006.3732269981301
2,1, 1,15, 0,18, 0.00,60.00,WinterDesignDay
7,21.103724235986462
8,7222943.617193269
142,1726.017951718247
205,2006.3732269981301
2,1, 1,15, 0,19, 0.00,60.00,WinterDesignDay
7,21.103724235986462
8,7222943.617193269
142,1726.017951718247
205,2006.3732269981301
2,1, 1,15, 0,20, 0.00,60.00,WinterDesignDay
7,21.103724235986462
8,7222943.617193269
142,1726.017951718247
205,2006.3732269981301
2,1, 1,15, 0,21, 0.00,60.00,WinterDesignDay
7,21.103724235986462
8,7222943.617193269
142,1726.017951718247
205,2006.3732269981301
2,1, 1,15, 0,22, 0.00,60.00,WinterDesignDay
7,21.103724235986462
8,7222943.617193269
142,1726.017951718247
205,2006.3732269981301
2,1, 1,15, 0,23, 0.00,60.00,WinterDesignDay
7,21.103724235986462
8,7222943.617193269
142,1726.017951718247
205,2006.3732269981301
2,1, 1,15, 0,24, 0.00,60.00,WinterDesignDay
7,21.103724235986462
8,7222943.617193269
142,1726.017951718247
205,2006.3732269981301
End of Data
 Number of Records Written=         384
